ESCALE ; pCOHP file generated by LOBSTER. Energy is shifted such that the Fermi level lies at 0 eV.
        10          2        401  -8.22734e+00   1.18228e+01   1.79772e+00 
Average
No.1:N38->N37(1.3016271619832365)
No.2:Mn7->N37(1.9837707966406355)
No.3:Mn8->N37(3.0865065529964655)
No.4:Mo25->N37(2.0220462951702451)
No.5:Mo26->N37(2.2263117826949035)
No.6:Mn7->N38(2.102651938217019)
No.7:Mn8->N38(1.9673885036794088)
No.8:Mo25->N38(3.2221380612856492)
No.9:Mo26->N38(2.2027688302568351)
-10.02506   0.00000  -1.00815   0.00000  -5.26205   0.00000  -0.47833   0.00000  -0.01603   0.00000  -1.17407   0.00000  -0.55004   0.00000  -0.32672   0.00000  -0.66062   0.00000  -0.00602   0.00000  -0.59948   0.00000  -1.01031   0.00000  -5.29284   0.00000  -0.47560   0.00000  -0.01529   0.00000  -1.19054   0.00000  -0.55118   0.00000  -0.32788   0.00000  -0.63520   0.00000  -0.00475   0.00000  -0.59946
 -9.97494   0.00000  -1.00815   0.00000  -5.26205   0.00000  -0.47833   0.00000  -0.01603   0.00000  -1.17407   0.00000  -0.55004   0.00000  -0.32672   0.00000  -0.66062   0.00000  -0.00602   0.00000  -0.59948   0.00000  -1.01031   0.00000  -5.29284   0.00000  -0.47560   0.00000  -0.01529   0.00000  -1.19054   0.00000  -0.55118   0.00000  -0.32788   0.00000  -0.63520   0.00000  -0.00475   0.00000  -0.59946
 -9.92481   0.00000  -1.00815   0.00000  -5.26205   0.00000  -0.47833   0.00000  -0.01603   0.00000  -1.17407   0.00000  -0.55004   0.00000  -0.32672   0.00000  -0.66062   0.00000  -0.00602   0.00000  -0.59948   0.00000  -1.01031   0.00000  -5.29284   0.00000  -0.47560   0.00000  -0.01529   0.00000  -1.19054   0.00000  -0.55118   0.00000  -0.32788   0.00000  -0.63520   0.00000  -0.00475   0.00000  -0.59946
 -9.87469   0.00000  -1.00815   0.00000  -5.26205   0.00000  -0.47833   0.00000  -0.01603   0.00000  -1.17407   0.00000  -0.55004   0.00000  -0.32672   0.00000  -0.66062   0.00000  -0.00602   0.00000  -0.59948   0.00000  -1.01031   0.00000  -5.29284   0.00000  -0.47560   0.00000  -0.01529   0.00000  -1.19054   0.00000  -0.55118   0.00000  -0.32788   0.00000  -0.63520   0.00000  -0.00475   0.00000  -0.59946
 -9.82456   0.00000  -1.00815   0.00000  -5.26205   0.00000  -0.47833   0.00000  -0.01603   0.00000  -1.17407   0.00000  -0.55004   0.00000  -0.32672   0.00000  -0.66062   0.00000  -0.00602   0.00000  -0.59948   0.00000  -1.01031   0.00000  -5.29284   0.00000  -0.47560   0.00000  -0.01529   0.00000  -1.19054   0.00000  -0.55118   0.00000  -0.32788   0.00000  -0.63520   0.00000  -0.00475   0.00000  -0.59946
 -9.77444   0.00000  -1.00815   0.00000  -5.26205   0.00000  -0.47833   0.00000  -0.01603   0.00000  -1.17407   0.00000  -0.55004   0.00000  -0.32672   0.00000  -0.66062   0.00000  -0.00602   0.00000  -0.59948   0.00000  -1.01031   0.00000  -5.29284   0.00000  -0.47560   0.00000  -0.01529   0.00000  -1.19054   0.00000  -0.55118   0.00000  -0.32788   0.00000  -0.63520   0.00000  -0.00475   0.00000  -0.59946
 -9.72431   0.00000  -1.00815   0.00000  -5.26205   0.00000  -0.47833   0.00000  -0.01603   0.00000  -1.17407   0.00000  -0.55004   0.00000  -0.32672   0.00000  -0.66062   0.00000  -0.00602   0.00000  -0.59948   0.00000  -1.01031   0.00000  -5.29284   0.00000  -0.47560   0.00000  -0.01529   0.00000  -1.19054   0.00000  -0.55118   0.00000  -0.32788   0.00000  -0.63520   0.00000  -0.00475   0.00000  -0.59946
 -9.67419   0.00000  -1.00815   0.00000  -5.26205   0.00000  -0.47833   0.00000  -0.01603   0.00000  -1.17407   0.00000  -0.55004   0.00000  -0.32672   0.00000  -0.66062   0.00000  -0.00602   0.00000  -0.59948   0.00000  -1.01031   0.00000  -5.29284   0.00000  -0.47560   0.00000  -0.01529   0.00000  -1.19054   0.00000  -0.55118   0.00000  -0.32788   0.00000  -0.63520   0.00000  -0.00475   0.00000  -0.59946
 -9.62406   0.00000  -1.00815   0.00000  -5.26205   0.00000  -0.47833   0.00000  -0.01603   0.00000  -1.17407   0.00000  -0.55004   0.00000  -0.32672   0.00000  -0.66062   0.00000  -0.00602   0.00000  -0.59948   0.00000  -1.01031   0.00000  -5.29284   0.00000  -0.47560   0.00000  -0.01529   0.00000  -1.19054   0.00000  -0.55118   0.00000  -0.32788   0.00000  -0.63520   0.00000  -0.00475   0.00000  -0.59946
 -9.57393   0.00000  -1.00815   0.00000  -5.26205   0.00000  -0.47833   0.00000  -0.01603   0.00000  -1.17407   0.00000  -0.55004   0.00000  -0.32672   0.00000  -0.66062   0.00000  -0.00602   0.00000  -0.59948   0.00000  -1.01031   0.00000  -5.29284   0.00000  -0.47560   0.00000  -0.01529   0.00000  -1.19054   0.00000  -0.55118   0.00000  -0.32788   0.00000  -0.63520   0.00000  -0.00475   0.00000  -0.59946
 -9.52381   0.00000  -1.00815   0.00000  -5.26205   0.00000  -0.47833   0.00000  -0.01603   0.00000  -1.17407   0.00000  -0.55004   0.00000  -0.32672   0.00000  -0.66062   0.00000  -0.00602   0.00000  -0.59948   0.00000  -1.01031   0.00000  -5.29284   0.00000  -0.47560   0.00000  -0.01529   0.00000  -1.19054   0.00000  -0.55118   0.00000  -0.32788   0.00000  -0.63520   0.00000  -0.00475   0.00000  -0.59946
 -9.47368   0.00000  -1.00815   0.00000  -5.26205   0.00000  -0.47833   0.00000  -0.01603   0.00000  -1.17407   0.00000  -0.55004   0.00000  -0.32672   0.00000  -0.66062   0.00000  -0.00602   0.00000  -0.59948   0.00000  -1.01031   0.00000  -5.29284   0.00000  -0.47560   0.00000  -0.01529   0.00000  -1.19054   0.00000  -0.55118   0.00000  -0.32788   0.00000  -0.63520   0.00000  -0.00475   0.00000  -0.59946
 -9.42356   0.00000  -1.00815   0.00000  -5.26205   0.00000  -0.47833   0.00000  -0.01603   0.00000  -1.17407   0.00000  -0.55004   0.00000  -0.32672   0.00000  -0.66062   0.00000  -0.00602   0.00000  -0.59948   0.00000  -1.01031   0.00000  -5.29284   0.00000  -0.47560   0.00000  -0.01529   0.00000  -1.19054   0.00000  -0.55118   0.00000  -0.32788   0.00000  -0.63520   0.00000  -0.00475   0.00000  -0.59946
 -9.37343   0.00000  -1.00815   0.00000  -5.26205   0.00000  -0.47833   0.00000  -0.01603   0.00000  -1.17407   0.00000  -0.55004   0.00000  -0.32672   0.00000  -0.66062   0.00000  -0.00602   0.00000  -0.59948   0.00000  -1.01031   0.00000  -5.29284   0.00000  -0.47560   0.00000  -0.01529   0.00000  -1.19054   0.00000  -0.55118   0.00000  -0.32788   0.00000  -0.63520   0.00000  -0.00475   0.00000  -0.59946
 -9.32331   0.00000  -1.00815   0.00000  -5.26205   0.00000  -0.47833   0.00000  -0.01603   0.00000  -1.17407   0.00000  -0.55004   0.00000  -0.32672   0.00000  -0.66062   0.00000  -0.00602   0.00000  -0.59948   0.00000  -1.01031   0.00000  -5.29284   0.00000  -0.47560   0.00000  -0.01529   0.00000  -1.19054   0.00000  -0.55118   0.00000  -0.32788   0.00000  -0.63520   0.00000  -0.00475   0.00000  -0.59946
 -9.27318   0.00000  -1.00815   0.00000  -5.26205   0.00000  -0.47833   0.00000  -0.01603   0.00000  -1.17407   0.00000  -0.55004   0.00000  -0.32672   0.00000  -0.66062   0.00000  -0.00602   0.00000  -0.59948   0.00000  -1.01031   0.00000  -5.29284   0.00000  -0.47560   0.00000  -0.01529   0.00000  -1.19054   0.00000  -0.55118   0.00000  -0.32788   0.00000  -0.63520   0.00000  -0.00475   0.00000  -0.59946
 -9.22306   0.00000  -1.00815   0.00000  -5.26205   0.00000  -0.47833   0.00000  -0.01603   0.00000  -1.17407   0.00000  -0.55004   0.00000  -0.32672   0.00000  -0.66062   0.00000  -0.00602   0.00000  -0.59948   0.00000  -1.01031   0.00000  -5.29284   0.00000  -0.47560   0.00000  -0.01529   0.00000  -1.19054   0.00000  -0.55118   0.00000  -0.32788   0.00000  -0.63520   0.00000  -0.00475   0.00000  -0.59946
 -9.17293   0.00000  -1.00815   0.00000  -5.26205   0.00000  -0.47833   0.00000  -0.01603   0.00000  -1.17407   0.00000  -0.55004   0.00000  -0.32672   0.00000  -0.66062   0.00000  -0.00602   0.00000  -0.59948   0.00000  -1.01031   0.00000  -5.29284   0.00000  -0.47560   0.00000  -0.01529   0.00000  -1.19054   0.00000  -0.55118   0.00000  -0.32788   0.00000  -0.63520   0.00000  -0.00475   0.00000  -0.59946
 -9.12281   0.00000  -1.00815   0.00000  -5.26205   0.00000  -0.47833   0.00000  -0.01603   0.00000  -1.17407   0.00000  -0.55004   0.00000  -0.32672   0.00000  -0.66062   0.00000  -0.00602   0.00000  -0.59948   0.00000  -1.01031   0.00000  -5.29284   0.00000  -0.47560   0.00000  -0.01529   0.00000  -1.19054   0.00000  -0.55118   0.00000  -0.32788   0.00000  -0.63520   0.00000  -0.00475   0.00000  -0.59946
 -9.07268   0.00000  -1.00815   0.00000  -5.26205   0.00000  -0.47833   0.00000  -0.01603   0.00000  -1.17407   0.00000  -0.55004   0.00000  -0.32672   0.00000  -0.66062   0.00000  -0.00602   0.00000  -0.59948   0.00000  -1.01031   0.00000  -5.29284   0.00000  -0.47560   0.00000  -0.01529   0.00000  -1.19054   0.00000  -0.55118   0.00000  -0.32788   0.00000  -0.63520   0.00000  -0.00475   0.00000  -0.59946
 -9.02256   0.00000  -1.00815   0.00000  -5.26205   0.00000  -0.47833   0.00000  -0.01603   0.00000  -1.17407   0.00000  -0.55004   0.00000  -0.32672   0.00000  -0.66062   0.00000  -0.00602   0.00000  -0.59948   0.00000  -1.01031   0.00000  -5.29284   0.00000  -0.47560   0.00000  -0.01529   0.00000  -1.19054   0.00000  -0.55118   0.00000  -0.32788   0.00000  -0.63520   0.00000  -0.00475   0.00000  -0.59946
 -8.97243   0.00000  -1.00815   0.00000  -5.26205   0.00000  -0.47833   0.00000  -0.01603   0.00000  -1.17407   0.00000  -0.55004   0.00000  -0.32672   0.00000  -0.66062   0.00000  -0.00602   0.00000  -0.59948   0.00000  -1.01031   0.00000  -5.29284   0.00000  -0.47560   0.00000  -0.01529   0.00000  -1.19054   0.00000  -0.55118   0.00000  -0.32788   0.00000  -0.63520   0.00000  -0.00475   0.00000  -0.59946
 -8.92231   0.00000  -1.00815   0.00000  -5.26205   0.00000  -0.47833   0.00000  -0.01603   0.00000  -1.17407   0.00000  -0.55004   0.00000  -0.32672   0.00000  -0.66062   0.00000  -0.00602   0.00000  -0.59948   0.00000  -1.01031   0.00000  -5.29284   0.00000  -0.47560   0.00000  -0.01529   0.00000  -1.19054   0.00000  -0.55118   0.00000  -0.32788   0.00000  -0.63520   0.00000  -0.00475   0.00000  -0.59946
 -8.87218   0.00000  -1.00815   0.00000  -5.26205   0.00000  -0.47833   0.00000  -0.01603   0.00000  -1.17407   0.00000  -0.55004   0.00000  -0.32672   0.00000  -0.66062   0.00000  -0.00602   0.00000  -0.59948   0.00000  -1.01031   0.00000  -5.29284   0.00000  -0.47560   0.00000  -0.01529   0.00000  -1.19054   0.00000  -0.55118   0.00000  -0.32788   0.00000  -0.63520   0.00000  -0.00475   0.00000  -0.59946
 -8.82206   0.00000  -1.00815   0.00000  -5.26205   0.00000  -0.47833   0.00000  -0.01603   0.00000  -1.17407   0.00000  -0.55004   0.00000  -0.32672   0.00000  -0.66062   0.00000  -0.00602   0.00000  -0.59948   0.00000  -1.01031   0.00000  -5.29284   0.00000  -0.47560   0.00000  -0.01529   0.00000  -1.19054   0.00000  -0.55118   0.00000  -0.32788   0.00000  -0.63520   0.00000  -0.00475   0.00000  -0.59946
 -8.77193   0.00000  -1.00815   0.00000  -5.26205   0.00000  -0.47833   0.00000  -0.01603   0.00000  -1.17407   0.00000  -0.55004   0.00000  -0.32672   0.00000  -0.66062   0.00000  -0.00602   0.00000  -0.59948   0.00000  -1.01031   0.00000  -5.29284   0.00000  -0.47560   0.00000  -0.01529   0.00000  -1.19054   0.00000  -0.55118   0.00000  -0.32788   0.00000  -0.63520   0.00000  -0.00475   0.00000  -0.59946
 -8.72180   0.00000  -1.00815   0.00000  -5.26205   0.00000  -0.47833   0.00000  -0.01603   0.00000  -1.17407   0.00000  -0.55004   0.00000  -0.32672   0.00000  -0.66062   0.00000  -0.00602   0.00000  -0.59948   0.00000  -1.01031   0.00000  -5.29284   0.00000  -0.47560   0.00000  -0.01529   0.00000  -1.19054   0.00000  -0.55118   0.00000  -0.32788   0.00000  -0.63520   0.00000  -0.00475   0.00000  -0.59946
 -8.67168   0.00000  -1.00815   0.00000  -5.26205   0.00000  -0.47833   0.00000  -0.01603   0.00000  -1.17407   0.00000  -0.55004   0.00000  -0.32672   0.00000  -0.66062   0.00000  -0.00602   0.00000  -0.59948   0.00000  -1.01031   0.00000  -5.29284   0.00000  -0.47560   0.00000  -0.01529   0.00000  -1.19054   0.00000  -0.55118   0.00000  -0.32788   0.00000  -0.63520   0.00000  -0.00475   0.00000  -0.59946
 -8.62155  -0.00000  -1.00815  -0.00000  -5.26205  -0.00000  -0.47833   0.00000  -0.01603  -0.00000  -1.17407  -0.00000  -0.55004  -0.00000  -0.32672  -0.00000  -0.66062  -0.00000  -0.00602  -0.00000  -0.59948   0.00000  -1.01031   0.00000  -5.29284   0.00000  -0.47560   0.00000  -0.01529   0.00000  -1.19054   0.00000  -0.55118   0.00000  -0.32788   0.00000  -0.63520   0.00000  -0.00475   0.00000  -0.59946
 -8.57143  -0.00000  -1.00815  -0.00000  -5.26205  -0.00000  -0.47833   0.00000  -0.01603  -0.00000  -1.17407  -0.00000  -0.55004  -0.00000  -0.32672  -0.00000  -0.66062   0.00000  -0.00602  -0.00000  -0.59948   0.00000  -1.01031   0.00000  -5.29284   0.00000  -0.47560   0.00000  -0.01529   0.00000  -1.19054   0.00000  -0.55118   0.00000  -0.32788   0.00000  -0.63520   0.00000  -0.00475   0.00000  -0.59946
 -8.52130  -0.00000  -1.00815  -0.00000  -5.26205  -0.00000  -0.47833   0.00000  -0.01603  -0.00000  -1.17407  -0.00000  -0.55004  -0.00000  -0.32672  -0.00000  -0.66062   0.00000  -0.00602  -0.00000  -0.59948   0.00000  -1.01031  -0.00000  -5.29284  -0.00000  -0.47560   0.00000  -0.01529   0.00000  -1.19054   0.00000  -0.55118   0.00000  -0.32788  -0.00000  -0.63520   0.00000  -0.00475   0.00000  -0.59946
 -8.47118  -0.00000  -1.00815  -0.00000  -5.26205  -0.00000  -0.47833   0.00000  -0.01603  -0.00000  -1.17407  -0.00000  -0.55004  -0.00000  -0.32672  -0.00000  -0.66062   0.00000  -0.00602  -0.00000  -0.59948  -0.00000  -1.01031  -0.00000  -5.29284  -0.00000  -0.47560   0.00000  -0.01529  -0.00000  -1.19054  -0.00000  -0.55118  -0.00000  -0.32788  -0.00000  -0.63520   0.00000  -0.00475  -0.00000  -0.59946
 -8.42105  -0.00000  -1.00815  -0.00000  -5.26205  -0.00000  -0.47833   0.00000  -0.01603  -0.00000  -1.17407  -0.00000  -0.55004  -0.00000  -0.32672  -0.00000  -0.66062   0.00000  -0.00602  -0.00000  -0.59948  -0.00000  -1.01031  -0.00000  -5.29284  -0.00000  -0.47560   0.00000  -0.01529  -0.00000  -1.19054  -0.00000  -0.55118  -0.00000  -0.32788  -0.00000  -0.63520   0.00000  -0.00475  -0.00000  -0.59946
 -8.37093  -0.00000  -1.00815  -0.00001  -5.26205  -0.00000  -0.47833   0.00000  -0.01603  -0.00000  -1.17407  -0.00000  -0.55004  -0.00000  -0.32672  -0.00000  -0.66062   0.00000  -0.00602  -0.00000  -0.59948  -0.00000  -1.01031  -0.00000  -5.29284  -0.00000  -0.47560   0.00000  -0.01529  -0.00000  -1.19054  -0.00000  -0.55118  -0.00000  -0.32788  -0.00000  -0.63520   0.00000  -0.00475  -0.00000  -0.59946
 -8.32080  -0.00003  -1.00815  -0.00013  -5.26206  -0.00002  -0.47833   0.00000  -0.01603  -0.00005  -1.17407  -0.00001  -0.55004  -0.00002  -0.32672  -0.00006  -0.66063   0.00000  -0.00602  -0.00002  -0.59948  -0.00000  -1.01031  -0.00000  -5.29284  -0.00000  -0.47560   0.00000  -0.01529  -0.00000  -1.19054  -0.00000  -0.55118  -0.00000  -0.32788  -0.00000  -0.63520   0.00000  -0.00475  -0.00000  -0.59946
 -8.27068  -0.00053  -1.00818  -0.00200  -5.26216  -0.00034  -0.47834   0.00007  -0.01602  -0.00081  -1.17412  -0.00020  -0.55005  -0.00028  -0.32673  -0.00090  -0.66067   0.00006  -0.00602  -0.00036  -0.59950  -0.00000  -1.01031  -0.00000  -5.29284  -0.00000  -0.47560   0.00000  -0.01529  -0.00000  -1.19054  -0.00000  -0.55118  -0.00000  -0.32788  -0.00000  -0.63520   0.00000  -0.00475  -0.00000  -0.59946
 -8.22055  -0.00541  -1.00845  -0.02046  -5.26318  -0.00345  -0.47852   0.00071  -0.01599  -0.00829  -1.17453  -0.00202  -0.55015  -0.00285  -0.32688  -0.00921  -0.66113   0.00059  -0.00599  -0.00370  -0.59969  -0.00001  -1.01031  -0.00006  -5.29285  -0.00001  -0.47560   0.00000  -0.01529  -0.00002  -1.19054  -0.00001  -0.55118  -0.00001  -0.32788  -0.00002  -0.63520   0.00000  -0.00475  -0.00001  -0.59946
 -8.17043  -0.03600  -1.01026  -0.13613  -5.27001  -0.02297  -0.47967   0.00468  -0.01575  -0.05518  -1.17730  -0.01342  -0.55083  -0.01895  -0.32783  -0.06132  -0.66421   0.00386  -0.00579  -0.02460  -0.60092  -0.00026  -1.01032  -0.00102  -5.29290  -0.00015  -0.47561   0.00003  -0.01529  -0.00041  -1.19056  -0.00009  -0.55119  -0.00014  -0.32789  -0.00039  -0.63522   0.00003  -0.00475  -0.00019  -0.59947
 -8.12030  -0.15754  -1.01815  -0.59544  -5.29985  -0.10066  -0.48471   0.02032  -0.01473  -0.24144  -1.18940  -0.05856  -0.55376  -0.08292  -0.33198  -0.26837  -0.67766   0.01660  -0.00496  -0.10744  -0.60630  -0.00300  -1.01047  -0.01177  -5.29349  -0.00178  -0.47570   0.00031  -0.01527  -0.00473  -1.19080  -0.00109  -0.55124  -0.00158  -0.32797  -0.00452  -0.63545   0.00032  -0.00473  -0.00215  -0.59958
 -8.07018  -0.45613  -1.04102  -1.72339  -5.38624  -0.29185  -0.49934   0.05844  -0.01180  -0.69879  -1.22443  -0.16905  -0.56224  -0.24006  -0.34402  -0.77717  -0.71661   0.04722  -0.00259  -0.31054  -0.62187  -0.02241  -1.01159  -0.08793  -5.29789  -0.01332  -0.47637   0.00232  -0.01515  -0.03538  -1.19257  -0.00815  -0.55165  -0.01180  -0.32856  -0.03375  -0.63714   0.00234  -0.00461  -0.01606  -0.60039
 -8.02005  -0.87407  -1.08483  -3.30164  -5.55173  -0.56007  -0.52742   0.11127  -0.00623  -1.33833  -1.29151  -0.32303  -0.57843  -0.46002  -0.36707  -1.48945  -0.79127   0.08892   0.00186  -0.59425  -0.65166  -0.10972  -1.01709  -0.43044  -5.31947  -0.06529  -0.47964   0.01126  -0.01459  -0.17320  -1.20125  -0.03980  -0.55364  -0.05774  -0.33146  -0.16508  -0.64542   0.01130  -0.00405  -0.07846  -0.60432
 -7.96992  -1.10238  -1.14009  -4.16344  -5.76043  -0.70736  -0.56287   0.13952   0.00077  -1.68666  -1.37606  -0.40635  -0.59880  -0.58025  -0.39616  -1.87854  -0.88544   0.11036   0.00739  -0.74872  -0.68919  -0.35431  -1.03485  -1.39019  -5.38915  -0.21116  -0.49023   0.03602  -0.01278  -0.55934  -1.22929  -0.12817  -0.56007  -0.18637  -0.34080  -0.53266  -0.67212   0.03592  -0.00225  -0.25282  -0.61699
 -7.91980  -0.90648  -1.18552  -3.42338  -5.93203  -0.58241  -0.59207   0.11418   0.00649  -1.38572  -1.44551  -0.33340  -0.61551  -0.47722  -0.42008  -1.54453  -0.96286   0.08950   0.01188  -0.61531  -0.72003  -0.75607  -1.07275  -2.96711  -5.53788  -0.45134  -0.51285   0.07618  -0.00897  -1.19336  -1.28911  -0.27274  -0.57374  -0.39757  -0.36073  -1.13573  -0.72904   0.07544   0.00153  -0.53845  -0.64398
 -7.86967  -0.48081  -1.20962  -1.81590  -6.02305  -0.30928  -0.60757   0.06033   0.00951  -0.73433  -1.48232  -0.17653  -0.62436  -0.25319  -0.43277  -0.81906  -1.00391   0.04694   0.01423  -0.32630  -0.73639  -1.06175  -1.12597  -4.16760  -5.74678  -0.63483  -0.54467   0.10612  -0.00365  -1.67515  -1.37308  -0.38197  -0.59289  -0.55818  -0.38870  -1.59358  -0.80892   0.10439   0.00677  -0.75493  -0.68182
 -7.81955  -0.16286  -1.21779  -0.61514  -6.05388  -0.10487  -0.61283   0.02037   0.01053  -0.24849  -1.49478  -0.05971  -0.62735  -0.08579  -0.43707  -0.27734  -1.01781   0.01575   0.01502  -0.11053  -0.74193  -0.97304  -1.17475  -3.82037  -5.93828  -0.58268  -0.57388   0.09659   0.00119  -1.53430  -1.44998  -0.34920  -0.61039  -0.51151  -0.41434  -1.45926  -0.88207   0.09445   0.01150  -0.69106  -0.71646
 -7.76942  -0.03492  -1.21954  -0.13192  -6.06050  -0.02251  -0.61395   0.00436   0.01075  -0.05323  -1.49745  -0.01279  -0.62799  -0.01840  -0.43799  -0.05945  -1.02079   0.00335   0.01519  -0.02371  -0.74311  -0.57610  -1.20362  -2.26253  -6.05169  -0.34547  -0.59119   0.05687   0.00405  -0.90776  -1.49548  -0.20632  -0.62073  -0.30286  -0.42953  -0.86332  -0.92534   0.05533   0.01427  -0.40886  -0.73696
 -7.71930  -0.00471  -1.21977  -0.01779  -6.06139  -0.00304  -0.61411   0.00059   0.01078  -0.00717  -1.49781  -0.00172  -0.62808  -0.00248  -0.43812  -0.00801  -1.02119   0.00045   0.01521  -0.00320  -0.74327  -0.21818  -1.21456  -0.85710  -6.09465  -0.13100  -0.59776   0.02144   0.00512  -0.34352  -1.51270  -0.07801  -0.62464  -0.11472  -0.43528  -0.32671  -0.94172   0.02077   0.01532  -0.15479  -0.74471
 -7.66917  -0.00040  -1.21979  -0.00152  -6.06146  -0.00026  -0.61412   0.00005   0.01079  -0.00061  -1.49784  -0.00015  -0.62808  -0.00021  -0.43813  -0.00068  -1.02123   0.00004   0.01522  -0.00027  -0.74329  -0.05239  -1.21719  -0.20588  -6.10497  -0.03149  -0.59934   0.00513   0.00538  -0.08242  -1.51684  -0.01871  -0.62558  -0.02755  -0.43666  -0.07840  -0.94565   0.00495   0.01556  -0.03717  -0.74658
 -7.61905  -0.00015  -1.21980  -0.00074  -6.06150  -0.00012  -0.61412   0.00001   0.01079  -0.00012  -1.49784  -0.00013  -0.62809  -0.00008  -0.43813  -0.00007  -1.02123   0.00001   0.01522  -0.00013  -0.74329  -0.00792  -1.21758  -0.03114  -6.10653  -0.00477  -0.59958   0.00077   0.00542  -0.01245  -1.51746  -0.00283  -0.62572  -0.00417  -0.43687  -0.01184  -0.94624   0.00074   0.01560  -0.00562  -0.74686
 -7.56892  -0.00201  -1.21990  -0.01009  -6.06201  -0.00158  -0.61420   0.00007   0.01079  -0.00138  -1.49791  -0.00191  -0.62819  -0.00112  -0.43819  -0.00052  -1.02126   0.00013   0.01522  -0.00170  -0.74338  -0.00080  -1.21762  -0.00319  -6.10669  -0.00048  -0.59960   0.00007   0.00542  -0.00121  -1.51752  -0.00031  -0.62574  -0.00042  -0.43689  -0.00113  -0.94630   0.00007   0.01560  -0.00057  -0.74689
 -7.51880  -0.01901  -1.22086  -0.09548  -6.06679  -0.01492  -0.61495   0.00067   0.01082  -0.01303  -1.49857  -0.01808  -0.62909  -0.01056  -0.43872  -0.00486  -1.02150   0.00127   0.01529  -0.01609  -0.74419  -0.00090  -1.21767  -0.00462  -6.10693  -0.00059  -0.59963   0.00003   0.00542  -0.00069  -1.51755  -0.00087  -0.62578  -0.00041  -0.43691  -0.00024  -0.94631   0.00006   0.01561  -0.00078  -0.74693
 -7.46867  -0.11153  -1.22645  -0.56034  -6.09488  -0.08752  -0.61934   0.00391   0.01102  -0.07646  -1.50240  -0.10607  -0.63441  -0.06193  -0.44182  -0.02853  -1.02293   0.00745   0.01566  -0.09431  -0.74891  -0.00950  -1.21814  -0.04936  -6.10940  -0.00624  -0.59994   0.00028   0.00544  -0.00694  -1.51790  -0.00944  -0.62625  -0.00430  -0.43712  -0.00191  -0.94641   0.00067   0.01564  -0.00828  -0.74734
 -7.41855  -0.40666  -1.24683  -2.04376  -6.19732  -0.31892  -0.63532   0.01426   0.01173  -0.27877  -1.51637  -0.38670  -0.65379  -0.22566  -0.45313  -0.10401  -1.02814   0.02718   0.01702  -0.34352  -0.76613  -0.06526  -1.22142  -0.33918  -6.12640  -0.04282  -0.60209   0.00194   0.00553  -0.04767  -1.52029  -0.06483  -0.62950  -0.02948  -0.43860  -0.01310  -0.94706   0.00458   0.01587  -0.05681  -0.75019
 -7.36842  -0.92341  -1.29312  -4.64262  -6.43004  -0.72369  -0.67160   0.03238   0.01336  -0.63316  -1.54811  -0.87798  -0.69780  -0.51195  -0.47880  -0.23631  -1.03999   0.06175   0.02012  -0.77915  -0.80519  -0.27824  -1.23536  -1.44652  -6.19891  -0.18241  -0.61123   0.00829   0.00595  -0.20323  -1.53048  -0.27638  -0.64336  -0.12559  -0.44490  -0.05585  -0.94986   0.01953   0.01685  -0.24200  -0.76232
 -7.31830  -1.30898  -1.35873  -6.58341  -6.76003  -1.02466  -0.72296   0.04589   0.01566  -0.89858  -1.59315  -1.24434  -0.76018  -0.72468  -0.51512  -0.33596  -1.05683   0.08756   0.02451  -1.10265  -0.86046  -0.73750  -1.27233  -3.83560  -6.39117  -0.48307  -0.63545   0.02195   0.00705  -0.53863  -1.55748  -0.73247  -0.68007  -0.33258  -0.46157  -0.14802  -0.95728   0.05179   0.01945  -0.64091  -0.79445
 -7.26817  -1.16278  -1.41701  -5.84937  -7.05323  -0.90787  -0.76847   0.04079   0.01770  -0.80173  -1.63334  -1.10494  -0.81556  -0.64174  -0.54729  -0.30170  -1.07195   0.07781   0.02841  -0.97626  -0.90939  -1.21733  -1.33335  -6.33355  -6.70864  -0.79657  -0.67538   0.03621   0.00886  -0.88909  -1.60204  -1.20885  -0.74067  -0.54835  -0.48905  -0.24437  -0.96953   0.08552   0.02373  -1.05693  -0.84742
 -7.21805  -0.65394  -1.44979  -3.28874  -7.21808  -0.50689  -0.79388   0.02302   0.01886  -0.45805  -1.65630  -0.62060  -0.84667  -0.35772  -0.56522  -0.17632  -1.08079   0.04379   0.03060  -0.54396  -0.93666  -1.25335  -1.39617  -6.52333  -7.03562  -0.81902  -0.71643   0.03725   0.01073  -0.91613  -1.64797  -1.24434  -0.80304  -0.56365  -0.51731  -0.25219  -0.98217   0.08807   0.02815  -1.08683  -0.90190
 -7.16792  -0.24140  -1.46189  -1.21173  -7.27882  -0.18264  -0.80303   0.00863   0.01929  -0.17896  -1.66527  -0.22780  -0.85809  -0.12800  -0.57163  -0.07425  -1.08451   0.01620   0.03141  -0.19410  -0.94639  -0.80798  -1.43667  -4.20593  -7.24645  -0.52628  -0.74281   0.02399   0.01193  -0.59366  -1.67772  -0.80167  -0.84322  -0.36188  -0.53544  -0.16486  -0.99044   0.05678   0.03099  -0.69827  -0.93690
 -7.11779  -0.06759  -1.46528  -0.33740  -7.29573  -0.04675  -0.80537   0.00258   0.01942  -0.06075  -1.66831  -0.06193  -0.86119  -0.03153  -0.57321  -0.03068  -1.08605   0.00462   0.03165  -0.04648  -0.94872  -0.33224  -1.45333  -1.72770  -7.33305  -0.21339  -0.75351   0.00984   0.01243  -0.25168  -1.69034  -0.32869  -0.85970  -0.14621  -0.54277  -0.07313  -0.99410   0.02334   0.03216  -0.28250  -0.95106
 -7.06767  -0.02320  -1.46644  -0.11565  -7.30153  -0.01237  -0.80599   0.00106   0.01947  -0.03068  -1.66985  -0.01890  -0.86214  -0.00675  -0.57355  -0.01972  -1.08704   0.00171   0.03173  -0.00750  -0.94910  -0.09675  -1.45818  -0.49982  -7.35810  -0.05767  -0.75640   0.00282   0.01257  -0.08543  -1.69462  -0.09422  -0.86442  -0.03877  -0.54472  -0.02954  -0.99558   0.00680   0.03250  -0.07492  -0.95482
 -7.01754  -0.01479  -1.46719  -0.07498  -7.30529  -0.00605  -0.80630   0.00079   0.01951  -0.02494  -1.67110  -0.01025  -0.86265  -0.00193  -0.57365  -0.01771  -1.08793   0.00119   0.03179   0.00078  -0.94906  -0.03037  -1.45970  -0.15425  -7.36583  -0.01355  -0.75708   0.00084   0.01261  -0.03972  -1.69661  -0.02778  -0.86581  -0.00821  -0.54513  -0.01765  -0.99647   0.00216   0.03261  -0.01519  -0.95558
 -6.96742  -0.01098  -1.46774  -0.05647  -7.30812  -0.00397  -0.80650   0.00060   0.01954  -0.02027  -1.67212  -0.00680  -0.86299  -0.00065  -0.57368  -0.01478  -1.08867   0.00090   0.03184   0.00263  -0.94893  -0.01695  -1.46055  -0.08625  -7.37016  -0.00485  -0.75732   0.00044   0.01263  -0.03061  -1.69815  -0.01379  -0.86651  -0.00194  -0.54523  -0.01492  -0.99721   0.00128   0.03268  -0.00191  -0.95568
 -6.91729  -0.00728  -1.46810  -0.03680  -7.30996  -0.00207  -0.80660   0.00035   0.01956  -0.01585  -1.67291  -0.00382  -0.86319   0.00020  -0.57367  -0.01143  -1.08924   0.00050   0.03186   0.00342  -0.94875  -0.01374  -1.46124  -0.07190  -7.37376  -0.00274  -0.75746   0.00035   0.01265  -0.02911  -1.69961  -0.00970  -0.86699  -0.00013  -0.54523  -0.01448  -0.99794   0.00110   0.03273   0.00294  -0.95553
 -6.86717  -0.00771  -1.46849  -0.03297  -7.31162  -0.00183  -0.80669   0.00006   0.01956  -0.02148  -1.67399  -0.00334  -0.86335   0.00039  -0.57365  -0.01444  -1.08996  -0.00010   0.03186   0.00433  -0.94854  -0.01159  -1.46182  -0.06221  -7.37688  -0.00171  -0.75754   0.00030   0.01267  -0.02675  -1.70095  -0.00717  -0.86735   0.00063  -0.54520  -0.01343  -0.99861   0.00093   0.03278   0.00513  -0.95527
 -6.81704  -0.02523  -1.46975  -0.08649  -7.31595  -0.01188  -0.80729  -0.00064   0.01953  -0.06362  -1.67718  -0.01434  -0.86407  -0.00565  -0.57394  -0.03957  -1.09195  -0.00249   0.03173  -0.00237  -0.94866  -0.00835  -1.46224  -0.04486  -7.37913  -0.00077  -0.75758   0.00018   0.01267  -0.02141  -1.70202  -0.00450  -0.86758   0.00091  -0.54515  -0.01068  -0.99915   0.00057   0.03281   0.00540  -0.95500
 -6.76692  -0.10447  -1.47499  -0.33237  -7.33261  -0.06269  -0.81043  -0.00352   0.01935  -0.23477  -1.68894  -0.06850  -0.86750  -0.03846  -0.57586  -0.14051  -1.09899  -0.01288   0.03109  -0.04654  -0.95099  -0.00679  -1.46258  -0.03200  -7.38073  -0.00017  -0.75759  -0.00002   0.01267  -0.02190  -1.70312  -0.00311  -0.86773   0.00109  -0.54510  -0.01044  -0.99967  -0.00007   0.03280   0.00552  -0.95472
 -6.71679  -0.31757  -1.49091  -0.99725  -7.38260  -0.20147  -0.82053  -0.01113   0.01879  -0.68597  -1.72333  -0.21592  -0.87833  -0.12913  -0.58234  -0.40509  -1.11930  -0.04053   0.02905  -0.17162  -0.95959  -0.01714  -1.46344  -0.06285  -7.38388  -0.00427  -0.75780  -0.00037   0.01266  -0.05165  -1.70571  -0.01015  -0.86824  -0.00109  -0.54515  -0.02418  -1.00088  -0.00204   0.03270   0.00235  -0.95461
 -6.66667  -0.62438  -1.52220  -1.96304  -7.48100  -0.40139  -0.84065  -0.02189   0.01770  -1.33058  -1.79002  -0.42842  -0.89980  -0.25988  -0.59536  -0.78189  -1.15849  -0.07969   0.02506  -0.35260  -0.97727  -0.07422  -1.46716  -0.25524  -7.39668  -0.03198  -0.75941  -0.00129   0.01259  -0.18376  -1.71492  -0.05281  -0.87089  -0.01749  -0.54603  -0.08738  -1.00526  -0.01030   0.03218  -0.02775  -0.95600
 -6.61654  -0.77194  -1.56090  -2.43758  -7.60318  -0.49793  -0.86561  -0.02681   0.01635  -1.63446  -1.87195  -0.53088  -0.92641  -0.32315  -0.61156  -0.95811  -1.20651  -0.09782   0.02016  -0.44072  -0.99936  -0.24808  -1.47959  -0.84721  -7.43914  -0.12049  -0.76545  -0.00367   0.01241  -0.56720  -1.74335  -0.18562  -0.88019  -0.07134  -0.54961  -0.27165  -1.01888  -0.03474   0.03044  -0.13080  -0.96255
 -6.56642  -0.59785  -1.59087  -1.90406  -7.69862  -0.38573  -0.88494  -0.02026   0.01534  -1.25888  -1.93505  -0.41084  -0.94701  -0.24993  -0.62409  -0.73638  -1.24343  -0.07464   0.01641  -0.33993  -1.01640  -0.54145  -1.50673  -1.85448  -7.53210  -0.27093  -0.77903  -0.00740   0.01204  -1.20492  -1.80375  -0.41077  -0.90078  -0.16336  -0.55780  -0.57770  -1.04784  -0.07520   0.02667  -0.30828  -0.97801
 -6.51629  -0.29308  -1.60556  -0.95607  -7.74655  -0.18851  -0.89439  -0.00910   0.01488  -0.61077  -1.96567  -0.20021  -0.95704  -0.12092  -0.63015  -0.35592  -1.26127  -0.03504   0.01466  -0.16116  -1.02447  -0.74502  -1.54408  -2.56453  -7.66065  -0.37588  -0.79787  -0.00967   0.01155  -1.63895  -1.88590  -0.56767  -0.92924  -0.22782  -0.56922  -0.78533  -1.08720  -0.10233   0.02154  -0.43301  -0.99971