  COHP#       atomMU       atomNU     distance     translation      ICOHP (at) eF   for spin  1
      1          N38          N37      1.30163       0   0   0           -6.61620 
      2          Mn7          N37      1.98377       0   0   0           -0.76135 
      3          Mn8          N37      3.08651       0   0   0           -0.02493 
      4         Mo25          N37      2.02205       0   0   0           -1.94951 
      5         Mo26          N37      2.22631       0   0   0           -0.94811 
      6          Mn7          N38      2.10265       0   0   0           -0.53435 
      7          Mn8          N38      1.96739       0   0   0           -0.92553 
      8         Mo25          N38      3.22214       0   0   0           -0.03998 
      9         Mo26          N38      2.20277       0   0   0           -1.06393 
  COHP#       atomMU       atomNU     distance     translation      ICOHP (at) eF   for spin  2
      1          N38          N37      1.30163       0   0   0           -6.43237 
      2          Mn7          N37      1.98377       0   0   0           -0.93896 
      3          Mn8          N37      3.08651       0   0   0           -0.02185 
      4         Mo25          N37      2.02205       0   0   0           -1.95682 
      5         Mo26          N37      2.22631       0   0   0           -0.91386 
      6          Mn7          N38      2.10265       0   0   0           -0.71792 
      7          Mn8          N38      1.96739       0   0   0           -1.27656 
      8         Mo25          N38      3.22214       0   0   0           -0.03757 
      9         Mo26          N38      2.20277       0   0   0           -1.06397 
