ESCALE ; pCOHP file generated by LOBSTER. Energy is shifted such that the Fermi level lies at 0 eV.
         5          2        401  -8.26684e+00   1.17833e+01   1.75822e+00 
Average
No.1:H28->N38(1.0286585416001812)
No.2:Mn7->N38(1.9124377541641353)
No.3:Mo25->N38(2.0320098292730244)
No.4:Mo26->N38(2.0526041891833451)
-10.02506   0.00000  -1.15259   0.00000  -2.30732   0.00000  -0.57985   0.00000  -0.88369   0.00000  -0.83951   0.00000  -1.15635   0.00000  -2.32116   0.00000  -0.58292   0.00000  -0.88351   0.00000  -0.83780
 -9.97494   0.00000  -1.15259   0.00000  -2.30732   0.00000  -0.57985   0.00000  -0.88369   0.00000  -0.83951   0.00000  -1.15635   0.00000  -2.32116   0.00000  -0.58292   0.00000  -0.88351   0.00000  -0.83780
 -9.92481   0.00000  -1.15259   0.00000  -2.30732   0.00000  -0.57985   0.00000  -0.88369   0.00000  -0.83951   0.00000  -1.15635   0.00000  -2.32116   0.00000  -0.58292   0.00000  -0.88351   0.00000  -0.83780
 -9.87469   0.00000  -1.15259   0.00000  -2.30732   0.00000  -0.57985   0.00000  -0.88369   0.00000  -0.83951   0.00000  -1.15635   0.00000  -2.32116   0.00000  -0.58292   0.00000  -0.88351   0.00000  -0.83780
 -9.82456   0.00000  -1.15259   0.00000  -2.30732   0.00000  -0.57985   0.00000  -0.88369   0.00000  -0.83951   0.00000  -1.15635   0.00000  -2.32116   0.00000  -0.58292   0.00000  -0.88351   0.00000  -0.83780
 -9.77444   0.00000  -1.15259   0.00000  -2.30732   0.00000  -0.57985   0.00000  -0.88369   0.00000  -0.83951   0.00000  -1.15635   0.00000  -2.32116   0.00000  -0.58292   0.00000  -0.88351   0.00000  -0.83780
 -9.72431   0.00000  -1.15259   0.00000  -2.30732   0.00000  -0.57985   0.00000  -0.88369   0.00000  -0.83951   0.00000  -1.15635   0.00000  -2.32116   0.00000  -0.58292   0.00000  -0.88351   0.00000  -0.83780
 -9.67419   0.00000  -1.15259   0.00000  -2.30732   0.00000  -0.57985   0.00000  -0.88369   0.00000  -0.83951   0.00000  -1.15635   0.00000  -2.32116   0.00000  -0.58292   0.00000  -0.88351   0.00000  -0.83780
 -9.62406   0.00000  -1.15259   0.00000  -2.30732   0.00000  -0.57985   0.00000  -0.88369   0.00000  -0.83951   0.00000  -1.15635   0.00000  -2.32116   0.00000  -0.58292   0.00000  -0.88351   0.00000  -0.83780
 -9.57393   0.00000  -1.15259   0.00000  -2.30732   0.00000  -0.57985   0.00000  -0.88369   0.00000  -0.83951   0.00000  -1.15635   0.00000  -2.32116   0.00000  -0.58292   0.00000  -0.88351   0.00000  -0.83780
 -9.52381   0.00000  -1.15259   0.00000  -2.30732   0.00000  -0.57985   0.00000  -0.88369   0.00000  -0.83951   0.00000  -1.15635   0.00000  -2.32116   0.00000  -0.58292   0.00000  -0.88351   0.00000  -0.83780
 -9.47368   0.00000  -1.15259   0.00000  -2.30732   0.00000  -0.57985   0.00000  -0.88369   0.00000  -0.83951   0.00000  -1.15635   0.00000  -2.32116   0.00000  -0.58292   0.00000  -0.88351   0.00000  -0.83780
 -9.42356   0.00000  -1.15259   0.00000  -2.30732   0.00000  -0.57985   0.00000  -0.88369   0.00000  -0.83951   0.00000  -1.15635   0.00000  -2.32116   0.00000  -0.58292   0.00000  -0.88351   0.00000  -0.83780
 -9.37343   0.00000  -1.15259   0.00000  -2.30732   0.00000  -0.57985   0.00000  -0.88369   0.00000  -0.83951   0.00000  -1.15635   0.00000  -2.32116   0.00000  -0.58292   0.00000  -0.88351   0.00000  -0.83780
 -9.32331   0.00000  -1.15259   0.00000  -2.30732   0.00000  -0.57985   0.00000  -0.88369   0.00000  -0.83951   0.00000  -1.15635   0.00000  -2.32116   0.00000  -0.58292   0.00000  -0.88351   0.00000  -0.83780
 -9.27318   0.00000  -1.15259   0.00000  -2.30732   0.00000  -0.57985   0.00000  -0.88369   0.00000  -0.83951   0.00000  -1.15635   0.00000  -2.32116   0.00000  -0.58292   0.00000  -0.88351   0.00000  -0.83780
 -9.22306   0.00000  -1.15259   0.00000  -2.30732   0.00000  -0.57985   0.00000  -0.88369   0.00000  -0.83951   0.00000  -1.15635   0.00000  -2.32116   0.00000  -0.58292   0.00000  -0.88351   0.00000  -0.83780
 -9.17293   0.00000  -1.15259   0.00000  -2.30732   0.00000  -0.57985   0.00000  -0.88369   0.00000  -0.83951   0.00000  -1.15635   0.00000  -2.32116   0.00000  -0.58292   0.00000  -0.88351   0.00000  -0.83780
 -9.12281   0.00000  -1.15259   0.00000  -2.30732   0.00000  -0.57985   0.00000  -0.88369   0.00000  -0.83951   0.00000  -1.15635   0.00000  -2.32116   0.00000  -0.58292   0.00000  -0.88351   0.00000  -0.83780
 -9.07268   0.00000  -1.15259   0.00000  -2.30732   0.00000  -0.57985   0.00000  -0.88369   0.00000  -0.83951   0.00000  -1.15635   0.00000  -2.32116   0.00000  -0.58292   0.00000  -0.88351   0.00000  -0.83780
 -9.02256   0.00000  -1.15259   0.00000  -2.30732   0.00000  -0.57985   0.00000  -0.88369   0.00000  -0.83951   0.00000  -1.15635   0.00000  -2.32116   0.00000  -0.58292   0.00000  -0.88351   0.00000  -0.83780
 -8.97243   0.00000  -1.15259   0.00000  -2.30732   0.00000  -0.57985   0.00000  -0.88369   0.00000  -0.83951   0.00000  -1.15635   0.00000  -2.32116   0.00000  -0.58292   0.00000  -0.88351   0.00000  -0.83780
 -8.92231   0.00000  -1.15259   0.00000  -2.30732   0.00000  -0.57985   0.00000  -0.88369   0.00000  -0.83951   0.00000  -1.15635   0.00000  -2.32116   0.00000  -0.58292   0.00000  -0.88351   0.00000  -0.83780
 -8.87218   0.00000  -1.15259   0.00000  -2.30732   0.00000  -0.57985   0.00000  -0.88369   0.00000  -0.83951   0.00000  -1.15635   0.00000  -2.32116   0.00000  -0.58292   0.00000  -0.88351   0.00000  -0.83780
 -8.82206   0.00000  -1.15259   0.00000  -2.30732   0.00000  -0.57985   0.00000  -0.88369   0.00000  -0.83951   0.00000  -1.15635   0.00000  -2.32116   0.00000  -0.58292   0.00000  -0.88351   0.00000  -0.83780
 -8.77193   0.00000  -1.15259   0.00000  -2.30732   0.00000  -0.57985   0.00000  -0.88369   0.00000  -0.83951   0.00000  -1.15635   0.00000  -2.32116   0.00000  -0.58292   0.00000  -0.88351   0.00000  -0.83780
 -8.72180   0.00000  -1.15259   0.00000  -2.30732   0.00000  -0.57985   0.00000  -0.88369   0.00000  -0.83951   0.00000  -1.15635   0.00000  -2.32116   0.00000  -0.58292   0.00000  -0.88351   0.00000  -0.83780
 -8.67168   0.00000  -1.15259   0.00000  -2.30732   0.00000  -0.57985   0.00000  -0.88369   0.00000  -0.83951   0.00000  -1.15635   0.00000  -2.32116   0.00000  -0.58292   0.00000  -0.88351   0.00000  -0.83780
 -8.62155   0.00000  -1.15259   0.00000  -2.30732   0.00000  -0.57985   0.00000  -0.88369   0.00000  -0.83951   0.00000  -1.15635   0.00000  -2.32116   0.00000  -0.58292   0.00000  -0.88351   0.00000  -0.83780
 -8.57143   0.00000  -1.15259   0.00000  -2.30732   0.00000  -0.57985   0.00000  -0.88369   0.00000  -0.83951   0.00000  -1.15635   0.00000  -2.32116   0.00000  -0.58292   0.00000  -0.88351   0.00000  -0.83780
 -8.52130   0.00000  -1.15259   0.00000  -2.30732   0.00000  -0.57985   0.00000  -0.88369   0.00000  -0.83951   0.00000  -1.15635   0.00000  -2.32116   0.00000  -0.58292   0.00000  -0.88351   0.00000  -0.83780
 -8.47118   0.00000  -1.15259   0.00000  -2.30732   0.00000  -0.57985   0.00000  -0.88369   0.00000  -0.83951   0.00000  -1.15635   0.00000  -2.32116   0.00000  -0.58292   0.00000  -0.88351   0.00000  -0.83780
 -8.42105   0.00000  -1.15259   0.00000  -2.30732   0.00000  -0.57985   0.00000  -0.88369   0.00000  -0.83951   0.00000  -1.15635   0.00000  -2.32116   0.00000  -0.58292   0.00000  -0.88351   0.00000  -0.83780
 -8.37093  -0.00000  -1.15259  -0.00000  -2.30732  -0.00000  -0.57985  -0.00000  -0.88369  -0.00000  -0.83951   0.00000  -1.15635   0.00000  -2.32116   0.00000  -0.58292   0.00000  -0.88351   0.00000  -0.83780
 -8.32080  -0.00000  -1.15259  -0.00000  -2.30732  -0.00000  -0.57985  -0.00000  -0.88369  -0.00000  -0.83951   0.00000  -1.15635   0.00000  -2.32116   0.00000  -0.58292   0.00000  -0.88351   0.00000  -0.83780
 -8.27068  -0.00000  -1.15259  -0.00000  -2.30732  -0.00000  -0.57985  -0.00000  -0.88369  -0.00000  -0.83951  -0.00000  -1.15635  -0.00000  -2.32116  -0.00000  -0.58292  -0.00000  -0.88351  -0.00000  -0.83780
 -8.22055  -0.00000  -1.15259  -0.00000  -2.30732  -0.00000  -0.57985  -0.00000  -0.88369  -0.00000  -0.83951  -0.00000  -1.15635  -0.00000  -2.32116  -0.00000  -0.58292  -0.00000  -0.88351  -0.00000  -0.83780
 -8.17043  -0.00000  -1.15259  -0.00000  -2.30732  -0.00000  -0.57985  -0.00000  -0.88369  -0.00000  -0.83951  -0.00000  -1.15635  -0.00000  -2.32116  -0.00000  -0.58292  -0.00000  -0.88351  -0.00000  -0.83780
 -8.12030  -0.00000  -1.15259  -0.00001  -2.30732  -0.00000  -0.57985  -0.00000  -0.88369  -0.00000  -0.83951  -0.00000  -1.15635  -0.00000  -2.32116  -0.00000  -0.58292  -0.00000  -0.88351  -0.00000  -0.83780
 -8.07018  -0.00009  -1.15260  -0.00018  -2.30733  -0.00005  -0.57986  -0.00006  -0.88369  -0.00006  -0.83951  -0.00000  -1.15635  -0.00000  -2.32116  -0.00000  -0.58292  -0.00000  -0.88351  -0.00000  -0.83780
 -8.02005  -0.00135  -1.15266  -0.00273  -2.30746  -0.00080  -0.57990  -0.00092  -0.88373  -0.00094  -0.83956  -0.00001  -1.15635  -0.00001  -2.32116  -0.00000  -0.58292  -0.00001  -0.88351  -0.00001  -0.83780
 -7.96992  -0.01322  -1.15333  -0.02675  -2.30880  -0.00786  -0.58029  -0.00906  -0.88419  -0.00921  -0.84002  -0.00015  -1.15636  -0.00032  -2.32118  -0.00007  -0.58292  -0.00011  -0.88352  -0.00011  -0.83780
 -7.91980  -0.08532  -1.15760  -0.17232  -2.31744  -0.05090  -0.58284  -0.05850  -0.88712  -0.05955  -0.84301  -0.00211  -1.15646  -0.00435  -2.32140  -0.00100  -0.58297  -0.00154  -0.88359  -0.00153  -0.83788
 -7.86967  -0.36644  -1.17597  -0.73867  -2.35447  -0.21940  -0.59384  -0.25138  -0.89972  -0.25632  -0.85586  -0.01874  -1.15740  -0.03862  -2.32333  -0.00893  -0.58342  -0.01375  -0.88428  -0.01366  -0.83857
 -7.81955  -1.05350  -1.22878  -2.11947  -2.46071  -0.63321  -0.62558  -0.72295  -0.93596  -0.73836  -0.89287  -0.11034  -1.16293  -0.22700  -2.33471  -0.05268  -0.58606  -0.08105  -0.88834  -0.08064  -0.84261
 -7.76942  -2.02247  -1.33016  -4.06180  -2.66430  -1.22027  -0.68675  -1.38805  -1.00554  -1.41978  -0.96403  -0.43609  -1.18479  -0.89546  -2.37960  -0.20867  -0.59652  -0.32069  -0.90442  -0.31956  -0.85863
 -7.71930  -2.56841  -1.45890  -5.15092  -2.92250  -1.55507  -0.76469  -1.76252  -1.09388  -1.80513  -1.05452  -1.16528  -1.24320  -2.38836  -2.49931  -0.55906  -0.62454  -0.85773  -0.94741  -0.85596  -0.90153
 -7.66917  -2.13005  -1.56567  -4.26722  -3.13639  -1.29355  -0.82953  -1.46129  -1.16713  -1.49813  -1.12961  -2.09902  -1.34841  -4.29532  -2.71462  -1.00988  -0.67516  -1.54604  -1.02491  -1.54485  -0.97897
 -7.61905  -1.13878  -1.62275  -2.27959  -3.25066  -0.69332  -0.86429  -0.78094  -1.20628  -0.80125  -1.16977  -2.52006  -1.47473  -5.15048  -2.97279  -1.21582  -0.73611  -1.85676  -1.11798  -1.85718  -1.07206
 -7.56892  -0.38816  -1.64221  -0.77658  -3.28958  -0.23683  -0.87616  -0.26608  -1.21961  -0.27317  -1.18347  -1.98619  -1.57429  -4.05570  -3.17608  -0.96073  -0.78426  -1.46346  -1.19134  -1.46485  -1.14549
 -7.51880  -0.08406  -1.64642  -0.16798  -3.29800  -0.05140  -0.87873  -0.05765  -1.22250  -0.05923  -1.18644  -1.01254  -1.62505  -2.06628  -3.27965  -0.49091  -0.80887  -0.74594  -1.22873  -0.74702  -1.18293
 -7.46867  -0.01400  -1.64712  -0.02720  -3.29937  -0.00867  -0.87917  -0.00987  -1.22300  -0.01026  -1.18695  -0.32978  -1.64158  -0.67269  -3.31337  -0.16021  -0.81690  -0.24289  -1.24090  -0.24332  -1.19513
 -7.41855  -0.01077  -1.64766  -0.01861  -3.30030  -0.00699  -0.87952  -0.00840  -1.22342  -0.00909  -1.18741  -0.06819  -1.64499  -0.13901  -3.32034  -0.03318  -0.81856  -0.05024  -1.24342  -0.05035  -1.19765
 -7.36842  -0.02392  -1.64886  -0.04057  -3.30233  -0.01566  -0.88030  -0.01888  -1.22437  -0.02057  -1.18844  -0.01042  -1.64552  -0.02083  -3.32138  -0.00501  -0.81882  -0.00789  -1.24382  -0.00794  -1.19805
 -7.31830  -0.03927  -1.65083  -0.06631  -3.30566  -0.02582  -0.88160  -0.03104  -1.22592  -0.03392  -1.19014  -0.00762  -1.64590  -0.01376  -3.32207  -0.00339  -0.81899  -0.00659  -1.24415  -0.00674  -1.19839
 -7.26817  -0.04558  -1.65311  -0.07641  -3.30949  -0.03017  -0.88311  -0.03613  -1.22773  -0.03961  -1.19212  -0.01963  -1.64688  -0.03491  -3.32382  -0.00854  -0.81941  -0.01728  -1.24501  -0.01778  -1.19928
 -7.21805  -0.04254  -1.65525  -0.07028  -3.31301  -0.02854  -0.88454  -0.03400  -1.22944  -0.03734  -1.19399  -0.03735  -1.64875  -0.06622  -3.32714  -0.01607  -0.82022  -0.03304  -1.24667  -0.03408  -1.20099
 -7.16792  -0.03821  -1.65716  -0.06191  -3.31611  -0.02618  -0.88585  -0.03096  -1.23099  -0.03377  -1.19569  -0.04917  -1.65122  -0.08673  -3.33149  -0.02092  -0.82127  -0.04385  -1.24887  -0.04517  -1.20325
 -7.11779  -0.03280  -1.65880  -0.05241  -3.31874  -0.02291  -0.88700  -0.02700  -1.23234  -0.02891  -1.19714  -0.04926  -1.65369  -0.08600  -3.33580  -0.02063  -0.82230  -0.04474  -1.25111  -0.04564  -1.20554
 -7.06767  -0.02346  -1.65998  -0.03699  -3.32059  -0.01644  -0.88782  -0.01979  -1.23333  -0.02063  -1.19817  -0.04481  -1.65593  -0.07701  -3.33966  -0.01843  -0.82323  -0.04193  -1.25321  -0.04187  -1.20764
 -7.01754  -0.01520  -1.66074  -0.02303  -3.32175  -0.01004  -0.88833  -0.01387  -1.23403  -0.01385  -1.19886  -0.03960  -1.65792  -0.06714  -3.34303  -0.01610  -0.82403  -0.03808  -1.25512  -0.03707  -1.20949
 -6.96742  -0.01357  -1.66142  -0.01909  -3.32271  -0.00778  -0.88872  -0.01401  -1.23473  -0.01341  -1.19954  -0.03012  -1.65943  -0.05053  -3.34556  -0.01205  -0.82464  -0.02964  -1.25661  -0.02824  -1.21091
 -6.91729  -0.01533  -1.66219  -0.02066  -3.32374  -0.00810  -0.88912  -0.01678  -1.23557  -0.01578  -1.20033  -0.01960  -1.66041  -0.03197  -3.34716  -0.00711  -0.82499  -0.02032  -1.25762  -0.01898  -1.21186
 -6.86717  -0.01437  -1.66291  -0.01882  -3.32468  -0.00723  -0.88949  -0.01628  -1.23639  -0.01515  -1.20109  -0.01562  -1.66119  -0.02382  -3.34836  -0.00416  -0.82520  -0.01798  -1.25853  -0.01654  -1.21269
 -6.81704  -0.01062  -1.66344  -0.01324  -3.32535  -0.00491  -0.88973  -0.01272  -1.23702  -0.01163  -1.20167  -0.01725  -1.66206  -0.02502  -3.34961  -0.00359  -0.82538  -0.02116  -1.25959  -0.01924  -1.21366
 -6.76692  -0.00708  -1.66380  -0.00808  -3.32575  -0.00283  -0.88987  -0.00913  -1.23748  -0.00827  -1.20208  -0.01717  -1.66292  -0.02423  -3.35083  -0.00332  -0.82555  -0.02176  -1.26068  -0.01936  -1.21463
 -6.71679  -0.00540  -1.66407  -0.00513  -3.32601  -0.00174  -0.88996  -0.00758  -1.23786  -0.00717  -1.20244  -0.01333  -1.66359  -0.01800  -3.35173  -0.00236  -0.82567  -0.01780  -1.26157  -0.01514  -1.21539
 -6.66667  -0.00616  -1.66438  -0.00445  -3.32623  -0.00155  -0.89004  -0.00940  -1.23833  -0.00925  -1.20291  -0.00900  -1.66404  -0.01115  -3.35229  -0.00137  -0.82574  -0.01305  -1.26222  -0.01041  -1.21591
 -6.61654  -0.00789  -1.66477  -0.00475  -3.32647  -0.00164  -0.89012  -0.01294  -1.23898  -0.01223  -1.20352  -0.00668  -1.66437  -0.00678  -3.35263  -0.00085  -0.82578  -0.01080  -1.26276  -0.00828  -1.21632
 -6.56642  -0.00828  -1.66519  -0.00439  -3.32669  -0.00163  -0.89020  -0.01427  -1.23970  -0.01281  -1.20416  -0.00712  -1.66473  -0.00539  -3.35290  -0.00065  -0.82581  -0.01266  -1.26340  -0.00976  -1.21681
 -6.51629  -0.00737  -1.66556  -0.00330  -3.32686  -0.00251  -0.89033  -0.01216  -1.24031  -0.01152  -1.20474  -0.00872  -1.66517  -0.00580  -3.35319  -0.00048  -0.82583  -0.01625  -1.26421  -0.01234  -1.21743
 -6.46617  -0.00685  -1.66590  -0.00227  -3.32697  -0.00497  -0.89058  -0.00939  -1.24078  -0.01074  -1.20528  -0.00902  -1.66562  -0.00578  -3.35348  -0.00033  -0.82585  -0.01720  -1.26508  -0.01276  -1.21807
 -6.41604  -0.00719  -1.66626  -0.00175  -3.32706  -0.00735  -0.89095  -0.00859  -1.24121  -0.01106  -1.20583  -0.00832  -1.66604  -0.00473  -3.35371  -0.00077  -0.82589  -0.01494  -1.26582  -0.01284  -1.21871
 -6.36591  -0.00765  -1.66665  -0.00192  -3.32716  -0.00778  -0.89134  -0.00926  -1.24167  -0.01165  -1.20642  -0.00825  -1.66645  -0.00359  -3.35389  -0.00194  -0.82599  -0.01200  -1.26643  -0.01547  -1.21949
 -6.31579  -0.00839  -1.66707  -0.00294  -3.32730  -0.00683  -0.89168  -0.01096  -1.24222  -0.01282  -1.20706  -0.00874  -1.66689  -0.00289  -3.35404  -0.00296  -0.82614  -0.01043  -1.26695  -0.01869  -1.22043
 -6.26566  -0.01142  -1.66764  -0.00458  -3.32753  -0.00791  -0.89208  -0.01549  -1.24300  -0.01769  -1.20795  -0.00895  -1.66734  -0.00286  -3.35418  -0.00304  -0.82629  -0.01023  -1.26746  -0.01966  -1.22141
 -6.21554  -0.01895  -1.66859  -0.00585  -3.32783  -0.01577  -0.89287  -0.02436  -1.24422  -0.02985  -1.20944  -0.00923  -1.66780  -0.00383  -3.35437  -0.00199  -0.82639  -0.01095  -1.26801  -0.02015  -1.22242
 -6.16541  -0.02952  -1.67007  -0.00603  -3.32813  -0.03021  -0.89438  -0.03491  -1.24597  -0.04694  -1.21180  -0.01203  -1.66840  -0.00559  -3.35465  -0.00162  -0.82647  -0.01454  -1.26874  -0.02636  -1.22374
 -6.11529  -0.03601  -1.67187  -0.00540  -3.32840  -0.04102  -0.89644  -0.04037  -1.24799  -0.05724  -1.21466  -0.02014  -1.66941  -0.00699  -3.35501  -0.00642  -0.82679  -0.02357  -1.26992  -0.04357  -1.22593
 -6.06516  -0.03418  -1.67359  -0.00425  -3.32861  -0.03894  -0.89839  -0.04039  -1.25002  -0.05316  -1.21733  -0.03166  -1.67100  -0.00716  -3.35536  -0.01779  -0.82768  -0.03533  -1.27169  -0.06636  -1.22925
 -6.01504  -0.03161  -1.67517  -0.00291  -3.32876  -0.03099  -0.89994  -0.04611  -1.25233  -0.04643  -1.21966  -0.03830  -1.67292  -0.00631  -3.35568  -0.02818  -0.82910  -0.04184  -1.27379  -0.07686  -1.23311
 -5.96491  -0.03875  -1.67711  -0.00209  -3.32886  -0.03143  -0.90152  -0.06557  -1.25562  -0.05592  -1.22246  -0.03570  -1.67471  -0.00481  -3.35592  -0.02894  -0.83055  -0.04267  -1.27593  -0.06637  -1.23643
 -5.91479  -0.05722  -1.67998  -0.00179  -3.32895  -0.04500  -0.90377  -0.09617  -1.26044  -0.08593  -1.22677  -0.03222  -1.67632  -0.00326  -3.35608  -0.02372  -0.83173  -0.04942  -1.27840  -0.05249  -1.23906
 -5.86466  -0.08237  -1.68411  -0.00133  -3.32902  -0.06837  -0.90720  -0.13405  -1.26716  -0.12573  -1.23307  -0.03906  -1.67828  -0.00241  -3.35621  -0.02429  -0.83295  -0.07116  -1.28197  -0.05839  -1.24199
 -5.81454  -0.10989  -1.68962  -0.00051  -3.32904  -0.09851  -0.91214  -0.17579  -1.27597  -0.16475  -1.24133  -0.05785  -1.68118  -0.00208  -3.35631  -0.03622  -0.83477  -0.10572  -1.28727  -0.08737  -1.24637
 -5.76441  -0.14093  -1.69668   0.00028  -3.32903  -0.13947  -0.91913  -0.22030  -1.28701  -0.20421  -1.25156  -0.08144  -1.68526  -0.00141  -3.35638  -0.05596  -0.83757  -0.14366  -1.29447  -0.12473  -1.25262
 -5.71429  -0.18026  -1.70572   0.00075  -3.32899  -0.20009  -0.92916  -0.27245  -1.30067  -0.24927  -1.26406  -0.10267  -1.69041  -0.00041  -3.35640  -0.07888  -0.84153  -0.17714  -1.30335  -0.15424  -1.26035
 -5.66416  -0.22939  -1.71722   0.00072  -3.32896  -0.28126  -0.94326  -0.33638  -1.31753  -0.30063  -1.27913  -0.12497  -1.69667   0.00016  -3.35639  -0.11022  -0.84705  -0.21340  -1.31405  -0.17640  -1.26920
 -5.61404  -0.29373  -1.73194   0.00033  -3.32894  -0.38279  -0.96244  -0.42359  -1.33876  -0.36888  -1.29762  -0.15897  -1.70464   0.00003  -3.35639  -0.16164  -0.85515  -0.26693  -1.32743  -0.20732  -1.27959
 -5.56391  -0.38116  -1.75105   0.00009  -3.32894  -0.51095  -0.98806  -0.54677  -1.36617  -0.46701  -1.32103  -0.20260  -1.71480  -0.00036  -3.35641  -0.22691  -0.86653  -0.33124  -1.34403  -0.25190  -1.29221
 -5.51378  -0.46550  -1.77438   0.00031  -3.32892  -0.63202  -1.01974  -0.66313  -1.39941  -0.56714  -1.34945  -0.24284  -1.72697  -0.00050  -3.35644  -0.28319  -0.88072  -0.38787  -1.36347  -0.29981  -1.30724
 -5.46366  -0.49748  -1.79932   0.00062  -3.32889  -0.66880  -1.05326  -0.70279  -1.43463  -0.61896  -1.38048  -0.28072  -1.74104  -0.00006  -3.35644  -0.32913  -0.89722  -0.44130  -1.38559  -0.35237  -1.32491
 -5.41353  -0.50293  -1.82453   0.00092  -3.32884  -0.62879  -1.08478  -0.72921  -1.47119  -0.65466  -1.41330  -0.32759  -1.75746   0.00080  -3.35640  -0.38123  -0.91633  -0.50729  -1.41102  -0.42265  -1.34609
 -5.36341  -0.56971  -1.85308   0.00166  -3.32876  -0.61652  -1.11568  -0.89431  -1.51601  -0.76965  -1.45187  -0.38585  -1.77680   0.00135  -3.35633  -0.43250  -0.93801  -0.59620  -1.44091  -0.51604  -1.37196
 -5.31328  -0.69502  -1.88792   0.00264  -3.32863  -0.66596  -1.14906  -1.16371  -1.57435  -0.95305  -1.49965  -0.46272  -1.79999   0.00128  -3.35627  -0.46634  -0.96138  -0.74372  -1.47819  -0.64212  -1.40414
 -5.26316  -0.76891  -1.92646   0.00292  -3.32848  -0.70113  -1.18421  -1.31103  -1.64006  -1.06639  -1.55310  -0.56564  -1.82835   0.00124  -3.35620  -0.48667  -0.98578  -0.97038  -1.52683  -0.80676  -1.44458
 -5.21303  -0.72471  -1.96279   0.00199  -3.32838  -0.65863  -1.21722  -1.22082  -1.70126  -1.02140  -1.60430  -0.66360  -1.86161   0.00157  -3.35613  -0.49857  -1.01077  -1.19042  -1.58650  -0.96697  -1.49305
 -5.16291  -0.60540  -1.99313   0.00020  -3.32837  -0.55776  -1.24518  -0.99327  -1.75104  -0.87076  -1.64794  -0.70143  -1.89677   0.00167  -3.35604  -0.49035  -1.03535  -1.27214  -1.65026  -1.04488  -1.54543
 -5.11278  -0.48421  -2.01741  -0.00136  -3.32844  -0.45335  -1.26790  -0.76761  -1.78952  -0.71455  -1.68376  -0.66192  -1.92995   0.00103  -3.35599  -0.45211  -1.05801  -1.18650  -1.70974  -1.01010  -1.59606
 -5.06266  -0.39396  -2.03715  -0.00184  -3.32853  -0.37155  -1.28653  -0.60225  -1.81971  -0.60018  -1.71385  -0.57629  -1.95884  -0.00004  -3.35599  -0.39299  -1.07771  -1.01033  -1.76038  -0.90182  -1.64126
 -5.01253  -0.33100  -2.05374  -0.00151  -3.32861  -0.30911  -1.30202  -0.49282  -1.84441  -0.52058  -1.73994  -0.47981  -1.98289  -0.00090  -3.35604  -0.32899  -1.09420  -0.82084  -1.80152  -0.76852  -1.67979
 -4.96241  -0.29094  -2.06833  -0.00116  -3.32866  -0.26944  -1.31553  -0.42542  -1.86573  -0.46773  -1.76338  -0.39317  -2.00259  -0.00138  -3.35611  -0.27037  -1.10775  -0.65751  -1.83448  -0.64340  -1.71204
 -4.91228  -0.27691  -2.08221  -0.00114  -3.32872  -0.26290  -1.32870  -0.39617  -1.88559  -0.44743  -1.78581  -0.32602  -2.01894  -0.00177  -3.35619  -0.22236  -1.11890  -0.53323  -1.86121  -0.54674  -1.73944
 -4.86216  -0.28047  -2.09627  -0.00134  -3.32879  -0.28064  -1.34277  -0.38957  -1.90512  -0.45034  -1.80839  -0.28016  -2.03298  -0.00219  -3.35630  -0.18781  -1.12831  -0.44711  -1.88362  -0.48352  -1.76368
 -4.81203  -0.28113  -2.11036  -0.00165  -3.32887  -0.29991  -1.35780  -0.37318  -1.92383  -0.44976  -1.83093  -0.25807  -2.04592  -0.00248  -3.35643  -0.16979  -1.13682  -0.40059  -1.90370  -0.45941  -1.78671
 -4.76190  -0.26624  -2.12370  -0.00207  -3.32897  -0.30776  -1.37323  -0.32749  -1.94024  -0.42764  -1.85237  -0.26065  -2.05898  -0.00269  -3.35656  -0.17050  -1.14537  -0.39270  -1.92339  -0.47672  -1.81060
 -4.71178  -0.23693  -2.13558  -0.00254  -3.32910  -0.30278  -1.38841  -0.25888  -1.95322  -0.38351  -1.87159  -0.27802  -2.07292  -0.00302  -3.35672  -0.18528  -1.15466  -0.41016  -1.94395  -0.51361  -1.83635
 -4.66165  -0.19988  -2.14560  -0.00274  -3.32924  -0.28426  -1.40266  -0.18562  -1.96252  -0.32692  -1.88798  -0.28987  -2.08745  -0.00341  -3.35689  -0.20180  -1.16477  -0.42236  -1.96512  -0.53190  -1.86301
 -4.61153  -0.16213  -2.15373  -0.00252  -3.32937  -0.25104  -1.41524  -0.12453  -1.96876  -0.27042  -1.90153  -0.27654  -2.10131  -0.00359  -3.35707  -0.20901  -1.17525  -0.38990  -1.98466  -0.50366  -1.88825
 -4.56140  -0.12877  -2.16018  -0.00219  -3.32948  -0.20731  -1.42563  -0.08242  -1.97290  -0.22315  -1.91272  -0.23884  -2.11328  -0.00337  -3.35723  -0.20533  -1.18554  -0.31078  -2.00024  -0.43590  -1.91010
 -4.51128  -0.10434  -2.16541  -0.00208  -3.32958  -0.16429  -1.43387  -0.06108  -1.97596  -0.18993  -1.92224  -0.19684  -2.12315  -0.00273  -3.35737  -0.19387  -1.19526  -0.22632  -2.01158  -0.36442  -1.92837
 -4.46115  -0.09252  -2.17005  -0.00219  -3.32969  -0.13429  -1.44060  -0.06087  -1.97901  -0.17271  -1.93089  -0.16471  -2.13140  -0.00197  -3.35747  -0.17447  -1.20400  -0.16472  -2.01984  -0.31767  -1.94429
 -4.41103  -0.09089  -2.17460  -0.00228  -3.32980  -0.12039  -1.44663  -0.07203  -1.98262  -0.16885  -1.93936  -0.14399  -2.13862  -0.00162  -3.35755  -0.14948  -1.21150  -0.12741  -2.02623  -0.29746  -1.95921
 -4.36090  -0.09240  -2.17923  -0.00242  -3.32992  -0.11515  -1.45240  -0.07856  -1.98656  -0.17347  -1.94805  -0.13180  -2.14523  -0.00180  -3.35764  -0.12724  -1.21787  -0.11178  -2.03183  -0.28636  -1.97356
 -4.31078  -0.09145  -2.18382  -0.00296  -3.33007  -0.11205  -1.45802  -0.06898  -1.99001  -0.18181  -1.95717  -0.12450  -2.15147  -0.00205  -3.35774  -0.11372  -1.22358  -0.11163  -2.03742  -0.27059  -1.98712
 -4.26065  -0.08700  -2.18818  -0.00372  -3.33026  -0.11482  -1.46378  -0.04156  -1.99210  -0.18791  -1.96658  -0.11820  -2.15739  -0.00196  -3.35784  -0.10855  -1.22902  -0.11044  -2.04296  -0.25186  -1.99975
 -4.21053  -0.08319  -2.19235  -0.00426  -3.33047  -0.13176  -1.47038  -0.00985  -1.99259  -0.18688  -1.97595  -0.11072  -2.16294  -0.00172  -3.35793  -0.10937  -1.23450  -0.09266  -2.04760  -0.23913  -2.01173
 -4.16040  -0.08330  -2.19652  -0.00488  -3.33072  -0.15745  -1.47827   0.00389  -1.99240  -0.17477  -1.98471  -0.10502  -2.16821  -0.00188  -3.35802  -0.11526  -1.24028  -0.06564  -2.05089  -0.23731  -2.02363
 -4.11028  -0.08423  -2.20075  -0.00617  -3.33103  -0.17166  -1.48688  -0.01179  -1.99299  -0.14728  -1.99209  -0.10433  -2.17344  -0.00281  -3.35816  -0.12295  -1.24644  -0.05599  -2.05370  -0.23559  -2.03544
 -4.06015  -0.08154  -2.20483  -0.00791  -3.33142  -0.16477  -1.49514  -0.04536  -1.99526  -0.10813  -1.99752  -0.10499  -2.17870  -0.00453  -3.35839  -0.12565  -1.25274  -0.07489  -2.05746  -0.21490  -2.04621
 -4.01003  -0.07583  -2.20863  -0.00928  -3.33189  -0.14944  -1.50263  -0.07084  -1.99881  -0.07375  -2.00121  -0.10168  -2.18379  -0.00669  -3.35873  -0.12220  -1.25886  -0.10469  -2.06270  -0.17314  -2.05489
 -3.95990  -0.06915  -2.21210  -0.00956  -3.33237  -0.13822  -1.50956  -0.07231  -2.00244  -0.05650  -2.00404  -0.09426  -2.18852  -0.00865  -3.35916  -0.11986  -1.26487  -0.12542  -2.06899  -0.12312  -2.06106
 -3.90977  -0.06141  -2.21518  -0.00857  -3.33280  -0.12995  -1.51607  -0.05715  -2.00530  -0.04996  -2.00655  -0.08358  -2.19271  -0.00950  -3.35964  -0.12218  -1.27099  -0.12834  -2.07542  -0.07430  -2.06478
 -3.85965  -0.05277  -2.21782  -0.00696  -3.33315  -0.12497  -1.52233  -0.04126  -2.00737  -0.03788  -2.00845  -0.06952  -2.19619  -0.00850  -3.36006  -0.12438  -1.27723  -0.10895  -2.08088  -0.03625  -2.06660
 -3.80952  -0.04397  -2.22003  -0.00561  -3.33343  -0.12624  -1.52866  -0.03078  -2.00891  -0.01324  -2.00911  -0.05573  -2.19899  -0.00616  -3.36037  -0.12219  -1.28335  -0.07330  -2.08456  -0.02125  -2.06767
 -3.75940  -0.03529  -2.22180  -0.00493  -3.33367  -0.12734  -1.53505  -0.02255  -2.01004   0.01366  -2.00843  -0.04681  -2.20133  -0.00409  -3.36058  -0.11367  -1.28905  -0.03808  -2.08647  -0.03140  -2.06924
 -3.70927  -0.02720  -2.22316  -0.00518  -3.33393  -0.12169  -1.54115  -0.01149  -2.01062   0.02955  -2.00694  -0.04185  -2.20343  -0.00349  -3.36075  -0.09694  -1.29391  -0.01551  -2.08724  -0.05147  -2.07182
 -3.65915  -0.01959  -2.22414  -0.00641  -3.33426  -0.11041  -1.54668   0.00347  -2.01044   0.03498  -2.00519  -0.03701  -2.20529  -0.00441  -3.36097  -0.07756  -1.29780  -0.00798  -2.08764  -0.05810  -2.07473
 -3.60902  -0.01042  -2.22466  -0.00785  -3.33465  -0.09543  -1.55146   0.01952  -2.00947   0.04208  -2.00308  -0.02943  -2.20676  -0.00616  -3.36128  -0.06543  -1.30108  -0.00960  -2.08812  -0.03652  -2.07656
 -3.55890   0.00147  -2.22459  -0.00884  -3.33509  -0.08022  -1.55548   0.03234  -2.00784   0.06260  -1.99994  -0.01582  -2.20755  -0.00813  -3.36169  -0.05894  -1.30403  -0.00900  -2.08858   0.01277  -2.07592
 -3.50877   0.01301  -2.22394  -0.00951  -3.33557  -0.06974  -1.55898   0.03630  -2.00602   0.09499  -1.99518   0.00337  -2.20739  -0.00972  -3.36217  -0.04982  -1.30653   0.00033  -2.08856   0.07267  -2.07228
 -3.45865   0.02036  -2.22292  -0.00984  -3.33606  -0.06287  -1.56213   0.03181  -2.00443   0.12236  -1.98905   0.02093  -2.20634  -0.01000  -3.36268  -0.03944  -1.30851   0.01500  -2.08781   0.11818  -2.06636
 -3.40852   0.02361  -2.22173  -0.00953  -3.33654  -0.05491  -1.56488   0.02763  -2.00305   0.13125  -1.98247   0.03153  -2.20476  -0.00855  -3.36310  -0.03389  -1.31021   0.02735  -2.08644   0.14121  -2.05928
 -3.35840   0.02541  -2.22046  -0.00880  -3.33698  -0.04623  -1.56720   0.02859  -2.00161   0.12808  -1.97605   0.03530  -2.20299  -0.00599  -3.36340  -0.03367  -1.31189   0.03266  -2.08480   0.14819  -2.05185
 -3.30827   0.02746  -2.21908  -0.00837  -3.33740  -0.03957  -1.56918   0.03313  -1.99995   0.12463  -1.96980   0.03317  -2.20132  -0.00341  -3.36358  -0.03646  -1.31372   0.03288  -2.08315   0.13967  -2.04485
 -3.25815   0.02939  -2.21761  -0.00880  -3.33784  -0.03193  -1.57078   0.04044  -1.99792   0.11786  -1.96389   0.02725  -2.19996  -0.00175  -3.36366  -0.04086  -1.31577   0.03444  -2.08143   0.11718  -2.03898
 -3.20802   0.02994  -2.21611  -0.01024  -3.33835  -0.01979  -1.57178   0.04801  -1.99552   0.10180  -1.95879   0.02176  -2.19887  -0.00138  -3.36373  -0.04400  -1.31797   0.04059  -2.07939   0.09181  -2.03437
 -3.15789   0.02898  -2.21466  -0.01225  -3.33897  -0.00776  -1.57217   0.05176  -1.99292   0.08415  -1.95457   0.02007  -2.19786  -0.00192  -3.36383  -0.04310  -1.32014   0.04788  -2.07699   0.07742  -2.03049
 -3.10777   0.02780  -2.21326  -0.01383  -3.33966  -0.00276  -1.57230   0.05193  -1.99032   0.07583  -1.95077   0.02262  -2.19673  -0.00276  -3.36397  -0.03868  -1.32207   0.05195  -2.07439   0.07997  -2.02648
 -3.05764   0.02636  -2.21194  -0.01438  -3.34038  -0.00588  -1.57260   0.04959  -1.98783   0.07611  -1.94696   0.02665  -2.19539  -0.00355  -3.36414  -0.03310  -1.32373   0.05229  -2.07176   0.09096  -2.02192
 -3.00752   0.02318  -2.21078  -0.01414  -3.34109  -0.01234  -1.57322   0.04297  -1.98568   0.07623  -1.94314   0.02832  -2.19397  -0.00417  -3.36435  -0.02987  -1.32523   0.05071  -2.06922   0.09660  -2.01708