  38   38    1    2
  1.2486248e+03   8.1717352e-10   8.1717349e-10   2.1590999e-09   5.0000000e-16
            1.000000e-04
  CAR
 DOS and projected DOS file by LOBSTER. Energy is shifted such that the Fermi level lies at 0 eV. 
     11.78328417      -8.26684115   401       1.75822151       1.00000000
-10.02506   0.00000   0.00000 109.00000 109.00000
 -9.97494   0.00000   0.00000 109.00000 109.00000
 -9.92481   0.00000   0.00000 109.00000 109.00000
 -9.87469   0.00000   0.00000 109.00000 109.00000
 -9.82456   0.00000   0.00000 109.00000 109.00000
 -9.77444   0.00000   0.00000 109.00000 109.00000
 -9.72431   0.00000   0.00000 109.00000 109.00000
 -9.67419   0.00000   0.00000 109.00000 109.00000
 -9.62406   0.00000   0.00000 109.00000 109.00000
 -9.57393   0.00000   0.00000 109.00000 109.00000
 -9.52381   0.00000   0.00000 109.00000 109.00000
 -9.47368   0.00000   0.00000 109.00000 109.00000
 -9.42356   0.00000   0.00000 109.00000 109.00000
 -9.37343   0.00000   0.00000 109.00000 109.00000
 -9.32331   0.00000   0.00000 109.00000 109.00000
 -9.27318   0.00000   0.00000 109.00000 109.00000
 -9.22306   0.00000   0.00000 109.00000 109.00000
 -9.17293   0.00000   0.00000 109.00000 109.00000
 -9.12281   0.00000   0.00000 109.00000 109.00000
 -9.07268   0.00000   0.00000 109.00000 109.00000
 -9.02256   0.00000   0.00000 109.00000 109.00000
 -8.97243   0.00000   0.00000 109.00000 109.00000
 -8.92231   0.00000   0.00000 109.00000 109.00000
 -8.87218   0.00000   0.00000 109.00000 109.00000
 -8.82206   0.00000   0.00000 109.00000 109.00000
 -8.77193   0.00000   0.00000 109.00000 109.00000
 -8.72180   0.00000   0.00000 109.00000 109.00000
 -8.67168   0.00000   0.00000 109.00000 109.00000
 -8.62155   0.00000   0.00000 109.00000 109.00000
 -8.57143   0.00000   0.00000 109.00000 109.00000
 -8.52130   0.00000   0.00000 109.00000 109.00000
 -8.47118   0.00000   0.00000 109.00000 109.00000
 -8.42105   0.00000   0.00000 109.00000 109.00000
 -8.37093   0.00000   0.00000 109.00000 109.00000
 -8.32080   0.00000   0.00000 109.00000 109.00000
 -8.27068   0.00000   0.00000 109.00000 109.00000
 -8.22055   0.00000   0.00000 109.00000 109.00000
 -8.17043   0.00000   0.00000 109.00000 109.00000
 -8.12030   0.00001   0.00000 109.00000 109.00000
 -8.07018   0.00019   0.00000 109.00001 109.00000
 -8.02005   0.00291   0.00002 109.00016 109.00000
 -7.96992   0.02827   0.00034 109.00157 109.00002
 -7.91980   0.18033   0.00463 109.01061 109.00025
 -7.86967   0.76452   0.04074 109.04893 109.00229
 -7.81955   2.17003   0.23671 109.15771 109.01416
 -7.76942   4.11902   0.92195 109.36417 109.06037
 -7.71930   5.18325   2.42816 109.62399 109.18208
 -7.66917   4.26912   4.31849 109.83798 109.39855
 -7.61905   2.27115   5.13247 109.95182 109.65582
 -7.56892   0.77224   4.01503 109.99053 109.85707
 -7.51880   0.17367   2.03605 109.99923 109.95913
 -7.46867   0.06759   0.66101 110.00262 109.99226
 -7.41855   0.17313   0.13955 110.01130 109.99926
 -7.36842   0.43609   0.04259 110.03316 110.00139
 -7.31830   0.76094   0.11198 110.07130 110.00700
 -7.26817   0.98663   0.32663 110.12076 110.02338
 -7.21805   1.13385   0.65335 110.17759 110.05613
 -7.16792   1.29112   0.93485 110.24231 110.10299
 -7.11779   1.30060   1.10629 110.30750 110.15844
 -7.06767   1.06664   1.26631 110.36097 110.22191
 -7.01754   0.92052   1.33878 110.40711 110.28902
 -6.96742   1.16848   1.16088 110.46568 110.34721
 -6.91729   1.52327   0.95208 110.54203 110.39493
 -6.86717   1.53684   1.09684 110.61907 110.44991
 -6.81704   1.25760   1.46873 110.68211 110.52353
 -6.76692   0.96429   1.58161 110.73044 110.60281
 -6.71679   0.88799   1.34585 110.77495 110.67027
 -6.66667   1.16106   1.03603 110.83315 110.72220
 -6.61654   1.50993   0.91458 110.90884 110.76805
 -6.56642   1.52442   1.13207 110.98525 110.82479
 -6.51629   1.27183   1.45260 111.04900 110.89760
 -6.46617   1.09953   1.47000 111.10411 110.97129
 -6.41604   1.12341   1.25545 111.16042 111.03422
 -6.36591   1.24506   1.13580 111.22283 111.09115
 -6.31579   1.45325   1.16832 111.29568 111.14971
 -6.26566   1.88032   1.27638 111.38993 111.21369
 -6.21554   2.58417   1.49846 111.51946 111.28880
 -6.16541   3.34883   1.94917 111.68732 111.38650
 -6.11529   3.62587   2.65569 111.86907 111.51962
 -6.06516   3.10093   3.39916 112.02451 111.69001
 -6.01504   2.38633   3.64556 112.14412 111.87274
 -5.96491   2.33216   3.08898 112.26102 112.02758
 -5.91479   2.96331   2.35439 112.40956 112.14559
 -5.86466   3.75989   2.35520 112.59803 112.26365
 -5.81454   4.41623   3.12891 112.81939 112.42048
 -5.76441   4.92273   3.98326 113.06614 112.62015
 -5.71429   5.22751   4.46594 113.32817 112.84400
 -5.66416   5.26251   4.70935 113.59196 113.08006
 -5.61404   5.37282   4.93565 113.86127 113.32746
 -5.56391   6.12865   5.11866 114.16847 113.58404
 -5.51378   7.61988   5.40748 114.55042 113.85509
 -5.46366   9.38862   6.39318 115.02103 114.17555
 -5.41353  11.15594   8.33332 115.58023 114.59326
 -5.36341  13.05668  10.51637 116.23470 115.12039
 -5.31328  14.95428  12.23617 116.98428 115.73374
 -5.26316  16.24286  13.60851 117.79846 116.41587
 -5.21303  16.66952  14.84069 118.63403 117.15976
 -5.16291  16.71246  15.84930 119.47174 117.95421
 -5.11278  16.87944  16.63983 120.31783 118.78829
 -5.06266  17.14377  17.30677 121.17717 119.65580
 -5.01253  17.16447  17.90253 122.03754 120.55317
 -4.96241  17.13245  18.35941 122.89631 121.47344
 -4.91228  17.96461  18.38762 123.79679 122.39512
 -4.86216  20.06336  18.10399 124.80248 123.30259
 -4.81203  22.61719  18.38985 125.93617 124.22439
 -4.76190  24.55428  19.78003 127.16696 125.21587
 -4.71178  25.65493  21.73485 128.45292 126.30533
 -4.66165  26.42068  23.37582 129.77727 127.47705
 -4.61153  26.91174  24.25759 131.12623 128.69297
 -4.56140  26.63301  24.58872 132.46121 129.92549
 -4.51128  25.80779  24.79580 133.75484 131.16839
 -4.46115  25.30595  24.84794 135.02331 132.41390
 -4.41103  25.33280  24.56118 136.29312 133.64504
 -4.36090  25.42020  23.94747 137.56732 134.84541
 -4.31078  25.28304  23.14112 138.83464 136.00537
 -4.26065  24.96911  22.37309 140.08622 137.12682
 -4.21053  24.62255  21.89433 141.32043 138.22428
 -4.16040  24.52610  21.88213 142.54981 139.32113
 -4.11028  24.88914  22.15160 143.79739 140.43149
 -4.06015  25.37833  22.20690 145.06948 141.54462
 -4.01003  25.59214  22.00892 146.35230 142.64782
 -3.95990  25.55716  22.10701 147.63336 143.75594
 -3.90977  25.44252  22.66835 148.90867 144.89220
 -3.85965  25.49582  23.37628 150.18666 146.06394
 -3.80952  25.94849  24.14794 151.48734 147.27437
 -3.75940  26.72069  24.87029 152.82672 148.52100
 -3.70927  27.58932  25.21150 154.20964 149.78473
 -3.65915  28.19141  25.30929 155.62275 151.05337
 -3.60902  28.26691  25.72943 157.03963 152.34306
 -3.55890  28.41318  26.56610 158.46385 153.67470
 -3.50877  29.22380  27.19903 159.92870 155.03806
 -3.45865  30.04977  27.03951 161.43496 156.39342
 -3.40852  30.18558  26.49947 162.94802 157.72172
 -3.35840  30.16450  26.57822 164.46003 159.05396
 -3.30827  30.60760  27.28407 165.99424 160.42158
 -3.25815  31.09447  27.87543 167.55286 161.81884
 -3.20802  31.20204  28.24752 169.11687 163.23476
 -3.15789  31.40219  28.89881 170.69092 164.68332
 -3.10777  32.22293  30.05067 172.30610 166.18962
 -3.05764  33.70239  31.37338 173.99545 167.76222
 -3.00752  35.92171  32.51282 175.79603 169.39194
 -2.95739  38.84135  33.61427 177.74297 171.07686
 -2.90727  41.58551  35.04023 179.82745 172.83327
 -2.85714  43.06988  36.60933 181.98634 174.66832
 -2.80702  43.35887  37.58525 184.15972 176.55229
 -2.75689  43.78920  37.49186 186.35467 178.43158
 -2.70677  45.53467  36.69664 188.63711 180.27101
 -2.65664  48.00443  36.15591 191.04335 182.08334
 -2.60652  49.30983  36.47509 193.51502 183.91167
 -2.55639  48.78616  37.15071 195.96044 185.77386
 -2.50627  47.84931  37.24500 198.35890 187.64077
 -2.45614  47.73141  36.80273 200.75145 189.48552
 -2.40602  47.92052  36.85065 203.15348 191.33267
 -2.35589  47.45531  38.06225 205.53219 193.24055
 -2.30576  46.30185  39.91467 207.85309 195.24129
 -2.25564  45.06693  41.04582 210.11208 197.29872
 -2.20551  44.16656  40.38903 212.32595 199.32324
 -2.15539  43.57400  38.07491 214.51011 201.23175
 -2.10526  43.03775  35.21030 216.66739 202.99668
 -2.05514  42.21639  32.97932 218.78350 204.64978
 -2.00501  40.95627  31.77990 220.83644 206.24276
 -1.95489  39.56984  31.02721 222.81989 207.79801
 -1.90476  38.49173  29.96935 224.74930 209.30023
 -1.85464  37.94723  28.52614 226.65142 210.73011
 -1.80451  37.68891  27.07554 228.54059 212.08728
 -1.75439  36.96734  25.78292 230.39359 213.37966
 -1.70426  35.40459  24.74701 232.16825 214.62011
 -1.65414  33.46535  24.02751 233.84572 215.82450
 -1.60401  31.88861  23.23487 235.44414 216.98915
 -1.55388  30.95351  22.16223 236.99570 218.10004
 -1.50376  30.41717  21.30652 238.52037 219.16804
 -1.45363  30.16157  21.10467 240.03223 220.22591
 -1.40351  30.15908  21.47206 241.54396 221.30221
 -1.35338  30.06864  22.09585 243.05116 222.40977
 -1.30326  29.74679  22.59596 244.54223 223.54240
 -1.25313  29.30193  22.52259 246.01099 224.67135
 -1.20301  28.75805  21.75055 247.45250 225.76160
 -1.15288  28.03962  20.85632 248.85800 226.80703
 -1.10276  26.75819  20.56278 250.19926 227.83775
 -1.05263  24.70287  20.93955 251.43750 228.88735
 -1.00251  22.47863  21.41047 252.56425 229.96056
 -0.95238  20.82112  21.37920 253.60791 231.03220
 -0.90226  19.80589  20.95143 254.60069 232.08239
 -0.85213  19.12113  20.72797 255.55914 233.12139
 -0.80201  18.73067  20.59370 256.49802 234.15365
 -0.75188  18.87399  19.85440 257.44408 235.14886
 -0.70175  19.46341  18.71672 258.41969 236.08704
 -0.65163  19.93066  18.12784 259.41872 236.99571
 -0.60150  19.81257  18.25227 260.41184 237.91061
 -0.55138  19.16776  18.43816 261.37263 238.83483
 -0.50125  18.25253  18.47938 262.28754 239.76111
 -0.45113  17.25688  18.65623 263.15255 240.69626
 -0.40100  16.47746  18.85246 263.97848 241.64125
 -0.35088  16.15362  18.83648 264.78819 242.58543
 -0.30075  16.13284  18.81250 265.59685 243.52841
 -0.25063  16.10391  18.96870 266.40407 244.47923
 -0.20050  16.25720  19.25838 267.21896 245.44456
 -0.15038  16.99873  19.64342 268.07103 246.42919
 -0.10025  17.72633  19.73567 268.95957 247.41845
 -0.05013  17.29932  18.91502 269.82670 248.36657
  0.00000  15.75617  17.36953 270.61648 249.23722
  0.05013  14.24358  16.21621 271.33045 250.05006
  0.10025  13.58722  16.26364 272.01151 250.86528
  0.15038  13.55451  17.14516 272.69094 251.72469
  0.20050  13.49685  18.15296 273.36747 252.63461
  0.25063  13.31017  19.18458 274.03465 253.59625
  0.30075  13.22677  20.17066 274.69764 254.60731
  0.35088  13.31632  20.65722 275.36513 255.64276
  0.40100  13.61278  20.44191 276.04747 256.66741
  0.45113  14.21224  19.84386 276.75987 257.66209
  0.50125  15.11769  19.41543 277.51765 258.63530
  0.55138  15.88355  19.55962 278.31381 259.61573
  0.60150  16.01389  20.14486 279.11651 260.62550
  0.65163  15.82900  20.73973 279.90995 261.66508
  0.70175  15.87411  21.13312 280.70564 262.72439
  0.75188  15.98956  21.18909 281.50712 263.78650
  0.80201  15.71205  20.71321 282.29470 264.82475
  0.85213  15.03678  20.02148 283.04842 265.82834
  0.90226  14.44280  19.87747 283.77237 266.82470
  0.95238  14.20622  20.24223 284.48446 267.83935
  1.00251  14.18327  20.39568 285.19540 268.86169
  1.05263  14.28002  20.14849 285.91119 269.87164
  1.10276  14.48057  19.63727 286.63703 270.85596
  1.15288  14.61763  18.99654 287.36975 271.80817
  1.20301  14.57644  18.55133 288.10040 272.73806
  1.25313  14.51108  18.57279 288.82777 273.66903
  1.30326  14.77725  19.20268 289.56848 274.63157
  1.35338  15.21353  20.31127 290.33107 275.64968
  1.40351  15.05960  21.27887 291.08593 276.71629
  1.45363  14.32238  21.63010 291.80385 277.80050
  1.50376  13.66716  21.56640 292.48892 278.88153
  1.55388  13.29573  21.53350 293.15537 279.96090
  1.60401  13.28728  21.75480 293.82140 281.05137
  1.65414  13.74312  22.21081 294.51028 282.16469
  1.70426  14.25019  22.72457 295.22457 283.30376
  1.75439  14.29041  23.12905 295.94088 284.46312
  1.80451  13.91750  23.38388 296.63850 285.63524
  1.85464  13.48862  23.63306 297.31462 286.81985
  1.90476  13.25873  24.11109 297.97922 288.02843
  1.95489  13.31456  24.74642 298.64662 289.26885
  2.00501  13.48090  25.11731 299.32235 290.52787
  2.05514  13.42407  24.94170 299.99524 291.77808
  2.10526  12.87432  24.34554 300.64057 292.99840
  2.15539  11.98685  23.54018 301.24141 294.17836
  2.20551  11.51312  22.45078 301.81851 295.30371
  2.25564  11.93909  20.89795 302.41696 296.35123
  2.30576  12.70119  19.02822 303.05361 297.30503
  2.35589  12.86003  17.30189 303.69823 298.17229
  2.40602  12.21190  16.14370 304.31035 298.98150
  2.45614  11.36244  15.61894 304.87990 299.76440
  2.50627  10.88694  15.56764 305.42561 300.54473
  2.55639  10.75424  15.88370 305.96467 301.34091
  2.60652  10.62937  16.29183 306.49747 302.15754
  2.65664  10.45227  16.37207 307.02139 302.97820
  2.70677  10.34498  15.88313 307.53994 303.77434
  2.75689  10.24181  14.80170 308.05331 304.51628
  2.80702  10.05152  13.37877 308.55715 305.18690
  2.85714   9.80410  12.11395 309.04858 305.79412
  2.90727   9.49061  11.46812 309.52430 306.36896
  2.95739   9.19795  11.52742 309.98535 306.94677
  3.00752   9.34353  11.77180 310.45370 307.53684
  3.05764   9.96263  11.62126 310.95308 308.11936
  3.10777  10.18914  11.06843 311.46381 308.67417
  3.15789   9.56337  10.31342 311.94318 309.19113
  3.20802   8.80798   9.59016 312.38468 309.67184
  3.25815   8.44349   9.23622 312.80791 310.13481
  3.30827   8.10510   9.31377 313.21418 310.60166
  3.35840   7.61214   9.55521 313.59575 311.08062
  3.40852   7.21209   9.57467 313.95725 311.56056
  3.45865   6.98587   9.16801 314.30742 312.02010
  3.50877   6.89457   8.63120 314.65302 312.45275
  3.55890   6.94430   8.35074 315.00110 312.87133
  3.60902   7.08493   8.22432 315.35623 313.28358
  3.65915   7.29150   8.02292 315.72172 313.68573
  3.70927   7.60892   7.84012 316.10312 314.07872
  3.75940   7.93934   7.66512 316.50109 314.46293
  3.80952   8.18233   7.36751 316.91123 314.83223
  3.85965   8.33900   7.26837 317.32922 315.19656
  3.90977   8.22084   7.62902 317.74129 315.57897
  3.95990   7.79466   8.11891 318.13200 315.98593
  4.01003   7.40847   8.49510 318.50336 316.41175
  4.06015   7.24053   8.83409 318.86629 316.85456
  4.11028   7.22781   9.16022 319.22859 317.31372
  4.16040   7.32578   9.35962 319.59579 317.78287
  4.21053   7.56847   9.25231 319.97517 318.24665
  4.26065   8.03577   8.95280 320.37796 318.69541
  4.31078   8.68710   8.88677 320.81340 319.14086
  4.36090   9.28618   9.05645 321.27888 319.59482
  4.41103   9.63337   9.00943 321.76175 320.04642
  4.46115   9.68456   8.69477 322.24719 320.48225
  4.51128   9.30276   8.39522 322.71350 320.90306
  4.56140   8.52767   8.29672 323.14095 321.31894
  4.61153   7.87438   8.53212 323.53566 321.74661
  4.66165   7.65414   8.87598 323.91932 322.19152
  4.71178   7.67744   8.90791 324.30416 322.63804
  4.76190   7.76610   8.70937 324.69343 323.07460
  4.81203   7.92873   8.58704 325.09086 323.50502
  4.86216   8.15593   8.61760 325.49968 323.93698
  4.91228   8.29200   8.69525 325.91532 324.37284
  4.96241   8.18997   8.60121 326.32585 324.80397
  5.01253   7.90529   8.40552 326.72210 325.22530
  5.06266   7.45209   8.53438 327.09564 325.65309
  5.11278   6.65754   8.92121 327.42935 326.10027
  5.16291   5.56356   8.81437 327.70823 326.54209
  5.21303   4.49362   7.91126 327.93347 326.93865
  5.26316   3.68322   6.73788 328.11809 327.27639
  5.31328   3.20403   5.74145 328.27870 327.56418
  5.36341   2.95258   4.83683 328.42670 327.80663
  5.41353   2.60684   3.92117 328.55736 328.00317
  5.46366   2.04306   3.14721 328.65977 328.16093
  5.51378   1.57912   2.70736 328.73893 328.29664
  5.56391   1.43413   2.56165 328.81081 328.42504
  5.61404   1.38933   2.36794 328.88045 328.54373
  5.66416   1.15889   1.96485 328.93854 328.64222
  5.71429   0.74153   1.54903 328.97571 328.71987
  5.76441   0.34406   1.26713 328.99296 328.78338
  5.81454   0.11170   1.11401 328.99856 328.83922
  5.86466   0.02473   1.00616 328.99980 328.88966
  5.91479   0.00366   0.83720 328.99998 328.93162
  5.96491   0.00035   0.61186 329.00000 328.96229
  6.01504   0.00002   0.39816 329.00000 328.98225
  6.06516   0.00000   0.22203 329.00000 328.99338
  6.11529   0.00000   0.09594 329.00000 328.99819
  6.16541   0.00000   0.02931 329.00000 328.99966
  6.21554   0.00000   0.00597 329.00000 328.99996
  6.26566   0.00000   0.00078 329.00000 329.00000
  6.31579   0.00000   0.00007 329.00000 329.00000
  6.36591   0.00000   0.00000 329.00000 329.00000
  6.41604   0.00000   0.00000 329.00000 329.00000
  6.46617   0.00000   0.00000 329.00000 329.00000
  6.51629   0.00000   0.00000 329.00000 329.00000
  6.56642   0.00000   0.00000 329.00000 329.00000
  6.61654   0.00000   0.00000 329.00000 329.00000
  6.66667   0.00000   0.00000 329.00000 329.00000
  6.71679   0.00000   0.00000 329.00000 329.00000
  6.76692   0.00000   0.00000 329.00000 329.00000
  6.81704   0.00000   0.00000 329.00000 329.00000
  6.86717   0.00000   0.00000 329.00000 329.00000
  6.91729   0.00000   0.00000 329.00000 329.00000
  6.96742   0.00000   0.00000 329.00000 329.00000
  7.01754   0.00000   0.00000 329.00000 329.00000
  7.06767   0.00000   0.00000 329.00000 329.00000
  7.11779   0.00000   0.00000 329.00000 329.00000
  7.16792   0.00000   0.00000 329.00000 329.00000
  7.21805   0.00000   0.00000 329.00000 329.00000
  7.26817   0.00000   0.00000 329.00000 329.00000
  7.31830   0.00000   0.00000 329.00000 329.00000
  7.36842   0.00000   0.00000 329.00000 329.00000
  7.41855   0.00000   0.00000 329.00000 329.00000
  7.46867   0.00000   0.00000 329.00000 329.00000
  7.51880   0.00000   0.00000 329.00000 329.00000
  7.56892   0.00000   0.00000 329.00000 329.00000
  7.61905   0.00000   0.00000 329.00000 329.00000
  7.66917   0.00000   0.00000 329.00000 329.00000
  7.71930   0.00000   0.00000 329.00000 329.00000
  7.76942   0.00000   0.00000 329.00000 329.00000
  7.81955   0.00000   0.00000 329.00000 329.00000
  7.86967   0.00000   0.00000 329.00000 329.00000
  7.91980   0.00000   0.00000 329.00000 329.00000
  7.96992   0.00000   0.00000 329.00000 329.00000
  8.02005   0.00000   0.00000 329.00000 329.00000
  8.07018   0.00000   0.00000 329.00000 329.00000
  8.12030   0.00000   0.00000 329.00000 329.00000
  8.17043   0.00000   0.00000 329.00000 329.00000
  8.22055   0.00000   0.00000 329.00000 329.00000
  8.27068   0.00000   0.00000 329.00000 329.00000
  8.32080   0.00000   0.00000 329.00000 329.00000
  8.37093   0.00000   0.00000 329.00000 329.00000
  8.42105   0.00000   0.00000 329.00000 329.00000
  8.47118   0.00000   0.00000 329.00000 329.00000
  8.52130   0.00000   0.00000 329.00000 329.00000
  8.57143   0.00000   0.00000 329.00000 329.00000
  8.62155   0.00000   0.00000 329.00000 329.00000
  8.67168   0.00000   0.00000 329.00000 329.00000
  8.72180   0.00000   0.00000 329.00000 329.00000
  8.77193   0.00000   0.00000 329.00000 329.00000
  8.82206   0.00000   0.00000 329.00000 329.00000
  8.87218   0.00000   0.00000 329.00000 329.00000
  8.92231   0.00000   0.00000 329.00000 329.00000
  8.97243   0.00000   0.00000 329.00000 329.00000
  9.02256   0.00000   0.00000 329.00000 329.00000
  9.07268   0.00000   0.00000 329.00000 329.00000
  9.12281   0.00000   0.00000 329.00000 329.00000
  9.17293   0.00000   0.00000 329.00000 329.00000
  9.22306   0.00000   0.00000 329.00000 329.00000
  9.27318   0.00000   0.00000 329.00000 329.00000
  9.32331   0.00000   0.00000 329.00000 329.00000
  9.37343   0.00000   0.00000 329.00000 329.00000
  9.42356   0.00000   0.00000 329.00000 329.00000
  9.47368   0.00000   0.00000 329.00000 329.00000
  9.52381   0.00000   0.00000 329.00000 329.00000
  9.57393   0.00000   0.00000 329.00000 329.00000
  9.62406   0.00000   0.00000 329.00000 329.00000
  9.67419   0.00000   0.00000 329.00000 329.00000
  9.72431   0.00000   0.00000 329.00000 329.00000
  9.77444   0.00000   0.00000 329.00000 329.00000
  9.82456   0.00000   0.00000 329.00000 329.00000
  9.87469   0.00000   0.00000 329.00000 329.00000
  9.92481   0.00000   0.00000 329.00000 329.00000
  9.97494   0.00000   0.00000 329.00000 329.00000
 10.02506   0.00000   0.00000 329.00000 329.00000
     10.02506266     -10.02506266   401       1.75822151       1.00000000; Z= 25; 4s 3p_y 3p_z 3p_x 3d_xy 3d_yz 3d_z^2 3d_xz 3d_x^2-y^2 
-10.02506   0.00000   0.00000   0.00000   0.00000   0.00000   0.00000   0.00000   0.00000   0.00000   0.00000   0.00000   0.00000   0.00000   0.00000   0.00000   0.00000   0.00000   0.00000
 -9.97494   0.00000   0.00000   0.00000   0.00000   0.00000   0.00000   0.00000   0.00000   0.00000   0.00000   0.00000   0.00000   0.00000   0.00000   0.00000   0.00000   0.00000   0.00000
 -9.92481   0.00000   0.00000   0.00000   0.00000   0.00000   0.00000   0.00000   0.00000   0.00000   0.00000   0.00000   0.00000   0.00000   0.00000   0.00000   0.00000   0.00000   0.00000
 -9.87469   0.00000   0.00000   0.00000   0.00000   0.00000   0.00000   0.00000   0.00000   0.00000   0.00000   0.00000   0.00000   0.00000   0.00000   0.00000   0.00000   0.00000   0.00000
 -9.82456   0.00000   0.00000   0.00000   0.00000   0.00000   0.00000   0.00000   0.00000   0.00000   0.00000   0.00000   0.00000   0.00000   0.00000   0.00000   0.00000   0.00000   0.00000
 -9.77444   0.00000   0.00000   0.00000   0.00000   0.00000   0.00000   0.00000   0.00000   0.00000   0.00000   0.00000   0.00000   0.00000   0.00000   0.00000   0.00000   0.00000   0.00000
 -9.72431   0.00000   0.00000   0.00000   0.00000   0.00000   0.00000   0.00000   0.00000   0.00000   0.00000   0.00000   0.00000   0.00000   0.00000   0.00000   0.00000   0.00000   0.00000
 -9.67419   0.00000   0.00000   0.00000   0.00000   0.00000   0.00000   0.00000   0.00000   0.00000   0.00000   0.00000   0.00000   0.00000   0.00000   0.00000   0.00000   0.00000   0.00000
 -9.62406   0.00000   0.00000   0.00000   0.00000   0.00000   0.00000   0.00000   0.00000   0.00000   0.00000   0.00000   0.00000   0.00000   0.00000   0.00000   0.00000   0.00000   0.00000
 -9.57393   0.00000   0.00000   0.00000   0.00000   0.00000   0.00000   0.00000   0.00000   0.00000   0.00000   0.00000   0.00000   0.00000   0.00000   0.00000   0.00000   0.00000   0.00000
 -9.52381   0.00000   0.00000   0.00000   0.00000   0.00000   0.00000   0.00000   0.00000   0.00000   0.00000   0.00000   0.00000   0.00000   0.00000   0.00000   0.00000   0.00000   0.00000
 -9.47368   0.00000   0.00000   0.00000   0.00000   0.00000   0.00000   0.00000   0.00000   0.00000   0.00000   0.00000   0.00000   0.00000   0.00000   0.00000   0.00000   0.00000   0.00000
 -9.42356   0.00000   0.00000   0.00000   0.00000   0.00000   0.00000   0.00000   0.00000   0.00000   0.00000   0.00000   0.00000   0.00000   0.00000   0.00000   0.00000   0.00000   0.00000
 -9.37343   0.00000   0.00000   0.00000   0.00000   0.00000   0.00000   0.00000   0.00000   0.00000   0.00000   0.00000   0.00000   0.00000   0.00000   0.00000   0.00000   0.00000   0.00000
 -9.32331   0.00000   0.00000   0.00000   0.00000   0.00000   0.00000   0.00000   0.00000   0.00000   0.00000   0.00000   0.00000   0.00000   0.00000   0.00000   0.00000   0.00000   0.00000
 -9.27318   0.00000   0.00000   0.00000   0.00000   0.00000   0.00000   0.00000   0.00000   0.00000   0.00000   0.00000   0.00000   0.00000   0.00000   0.00000   0.00000   0.00000   0.00000
 -9.22306   0.00000   0.00000   0.00000   0.00000   0.00000   0.00000   0.00000   0.00000   0.00000   0.00000   0.00000   0.00000   0.00000   0.00000   0.00000   0.00000   0.00000   0.00000
 -9.17293   0.00000   0.00000   0.00000   0.00000   0.00000   0.00000   0.00000   0.00000   0.00000   0.00000   0.00000   0.00000   0.00000   0.00000   0.00000   0.00000   0.00000   0.00000
 -9.12281   0.00000   0.00000   0.00000   0.00000   0.00000   0.00000   0.00000   0.00000   0.00000   0.00000   0.00000   0.00000   0.00000   0.00000   0.00000   0.00000   0.00000   0.00000
 -9.07268   0.00000   0.00000   0.00000   0.00000   0.00000   0.00000   0.00000   0.00000   0.00000   0.00000   0.00000   0.00000   0.00000   0.00000   0.00000   0.00000   0.00000   0.00000
 -9.02256   0.00000   0.00000   0.00000   0.00000   0.00000   0.00000   0.00000   0.00000   0.00000   0.00000   0.00000   0.00000   0.00000   0.00000   0.00000   0.00000   0.00000   0.00000
 -8.97243   0.00000   0.00000   0.00000   0.00000   0.00000   0.00000   0.00000   0.00000   0.00000   0.00000   0.00000   0.00000   0.00000   0.00000   0.00000   0.00000   0.00000   0.00000
 -8.92231   0.00000   0.00000   0.00000   0.00000   0.00000   0.00000   0.00000   0.00000   0.00000   0.00000   0.00000   0.00000   0.00000   0.00000   0.00000   0.00000   0.00000   0.00000
 -8.87218   0.00000   0.00000   0.00000   0.00000   0.00000   0.00000   0.00000   0.00000   0.00000   0.00000   0.00000   0.00000   0.00000   0.00000   0.00000   0.00000   0.00000   0.00000
 -8.82206   0.00000   0.00000   0.00000   0.00000   0.00000   0.00000   0.00000   0.00000   0.00000   0.00000   0.00000   0.00000   0.00000   0.00000   0.00000   0.00000   0.00000   0.00000
 -8.77193   0.00000   0.00000   0.00000   0.00000   0.00000   0.00000   0.00000   0.00000   0.00000   0.00000   0.00000   0.00000   0.00000   0.00000   0.00000   0.00000   0.00000   0.00000
 -8.72180   0.00000   0.00000   0.00000   0.00000   0.00000   0.00000   0.00000   0.00000   0.00000   0.00000   0.00000   0.00000   0.00000   0.00000   0.00000   0.00000   0.00000   0.00000
 -8.67168   0.00000   0.00000   0.00000   0.00000   0.00000   0.00000   0.00000   0.00000   0.00000   0.00000   0.00000   0.00000   0.00000   0.00000   0.00000   0.00000   0.00000   0.00000
 -8.62155   0.00000   0.00000   0.00000   0.00000   0.00000   0.00000   0.00000   0.00000   0.00000   0.00000   0.00000   0.00000   0.00000   0.00000   0.00000   0.00000   0.00000   0.00000
 -8.57143   0.00000   0.00000   0.00000   0.00000   0.00000   0.00000   0.00000   0.00000   0.00000   0.00000   0.00000   0.00000   0.00000   0.00000   0.00000   0.00000   0.00000   0.00000
 -8.52130   0.00000   0.00000   0.00000   0.00000   0.00000   0.00000   0.00000   0.00000   0.00000   0.00000   0.00000   0.00000   0.00000   0.00000   0.00000   0.00000   0.00000   0.00000
 -8.47118   0.00000   0.00000   0.00000   0.00000   0.00000   0.00000   0.00000   0.00000   0.00000   0.00000   0.00000   0.00000   0.00000   0.00000   0.00000   0.00000   0.00000   0.00000
 -8.42105   0.00000   0.00000   0.00000   0.00000   0.00000   0.00000   0.00000   0.00000   0.00000   0.00000   0.00000   0.00000   0.00000   0.00000   0.00000   0.00000   0.00000   0.00000
 -8.37093   0.00000   0.00000  -0.00000   0.00000  -0.00000   0.00000  -0.00000   0.00000   0.00000   0.00000  -0.00000   0.00000   0.00000   0.00000   0.00000   0.00000   0.00000   0.00000
 -8.32080   0.00000   0.00000  -0.00000   0.00000  -0.00000   0.00000  -0.00000   0.00000   0.00000   0.00000   0.00000   0.00000   0.00000   0.00000   0.00000   0.00000   0.00000   0.00000
 -8.27068   0.00000   0.00000  -0.00000   0.00000  -0.00000  -0.00000  -0.00000   0.00000   0.00000  -0.00000   0.00000  -0.00000   0.00000  -0.00000   0.00000   0.00000   0.00000   0.00000
 -8.22055   0.00000   0.00000  -0.00000  -0.00000  -0.00000  -0.00000  -0.00000  -0.00000   0.00000  -0.00000   0.00000   0.00000   0.00000  -0.00000   0.00000   0.00000   0.00000   0.00000
 -8.17043   0.00000   0.00000  -0.00000  -0.00000  -0.00000  -0.00000  -0.00000  -0.00000   0.00000  -0.00000   0.00000   0.00000   0.00000  -0.00000   0.00000   0.00000   0.00000   0.00000
 -8.12030   0.00000   0.00000  -0.00000  -0.00000  -0.00000  -0.00000  -0.00000   0.00000   0.00000  -0.00000   0.00000   0.00000   0.00000  -0.00000   0.00000   0.00000   0.00000   0.00000
 -8.07018   0.00000   0.00000  -0.00000  -0.00000  -0.00000  -0.00000  -0.00000  -0.00000   0.00000  -0.00000   0.00000   0.00000   0.00000  -0.00000   0.00000   0.00000   0.00000   0.00000
 -8.02005   0.00000   0.00000  -0.00000  -0.00000  -0.00000  -0.00000  -0.00000  -0.00000   0.00000   0.00000   0.00000   0.00000   0.00000  -0.00000   0.00000   0.00000   0.00000   0.00000
 -7.96992   0.00003   0.00000  -0.00000  -0.00000  -0.00000  -0.00000  -0.00000  -0.00000   0.00000   0.00000   0.00000   0.00000   0.00000  -0.00000   0.00000   0.00000   0.00000   0.00000
 -7.91980   0.00015   0.00000  -0.00000  -0.00000  -0.00000  -0.00000  -0.00000  -0.00000   0.00000   0.00000   0.00000   0.00000   0.00000  -0.00000   0.00000   0.00000   0.00000   0.00000
 -7.86967   0.00053   0.00003  -0.00000  -0.00000  -0.00000  -0.00000  -0.00000  -0.00000   0.00000   0.00000   0.00000   0.00000   0.00000  -0.00000   0.00000   0.00000   0.00000   0.00000
 -7.81955   0.00117   0.00015  -0.00000  -0.00000  -0.00000  -0.00000  -0.00000  -0.00000   0.00000   0.00000   0.00000   0.00000   0.00000  -0.00000   0.00000   0.00000   0.00000   0.00000
 -7.76942   0.00169   0.00049  -0.00000  -0.00000  -0.00000  -0.00000  -0.00000  -0.00000   0.00000   0.00000   0.00001   0.00000   0.00000  -0.00000   0.00000   0.00000   0.00000   0.00000
 -7.71930   0.00159   0.00100  -0.00000  -0.00000  -0.00000  -0.00000  -0.00000  -0.00000   0.00000   0.00000   0.00001   0.00000   0.00000  -0.00000   0.00001   0.00000   0.00000   0.00000
 -7.66917   0.00098   0.00133  -0.00000  -0.00000  -0.00000  -0.00000  -0.00000  -0.00000   0.00000   0.00000   0.00001   0.00000   0.00000  -0.00000   0.00000   0.00000   0.00000   0.00000
 -7.61905   0.00039   0.00115  -0.00000  -0.00000  -0.00000  -0.00000  -0.00000  -0.00000   0.00000   0.00000   0.00000   0.00000   0.00000   0.00000   0.00000   0.00000   0.00000   0.00000
 -7.56892   0.00012   0.00066  -0.00000  -0.00000  -0.00000  -0.00000  -0.00000  -0.00000   0.00000   0.00000   0.00000   0.00000   0.00000   0.00000   0.00000   0.00000   0.00000   0.00000