  COHP#       atomMU       atomNU     distance     translation      ICOHP (at) eF   for spin  1
      1          H28          N38      1.02866       0   0   0           -3.34449 
      2          Mn7          N38      1.91244       0   0   0           -1.11536 
      3         Mo25          N38      2.03201       0   0   0           -1.85081 
      4         Mo26          N38      2.05260       0   0   0           -1.73512 
  COHP#       atomMU       atomNU     distance     translation      ICOHP (at) eF   for spin  2
      1          H28          N38      1.02866       0   0   0           -3.36789 
      2          Mn7          N38      1.91244       0   0   0           -1.35248 
      3         Mo25          N38      2.03201       0   0   0           -1.79325 
      4         Mo26          N38      2.05260       0   0   0           -1.69239 
