ESCALE ; pCOHP file generated by LOBSTER. Energy is shifted such that the Fermi level lies at 0 eV.
         3          2        401  -8.29182e+00   1.17583e+01   1.73324e+00 
Average
No.1:Pd35->Mo25(2.7234234217827669)
No.2:Cu15->Mo25(2.7384747632624515)
-10.02506   0.00000  -0.08185   0.00000  -0.10892   0.00000  -0.05478   0.00000  -0.08186   0.00000  -0.10894   0.00000  -0.05478
 -9.97494   0.00000  -0.08185   0.00000  -0.10892   0.00000  -0.05478   0.00000  -0.08186   0.00000  -0.10894   0.00000  -0.05478
 -9.92481   0.00000  -0.08185   0.00000  -0.10892   0.00000  -0.05478   0.00000  -0.08186   0.00000  -0.10894   0.00000  -0.05478
 -9.87469   0.00000  -0.08185   0.00000  -0.10892   0.00000  -0.05478   0.00000  -0.08186   0.00000  -0.10894   0.00000  -0.05478
 -9.82456   0.00000  -0.08185   0.00000  -0.10892   0.00000  -0.05478   0.00000  -0.08186   0.00000  -0.10894   0.00000  -0.05478
 -9.77444   0.00000  -0.08185   0.00000  -0.10892   0.00000  -0.05478   0.00000  -0.08186   0.00000  -0.10894   0.00000  -0.05478
 -9.72431   0.00000  -0.08185   0.00000  -0.10892   0.00000  -0.05478   0.00000  -0.08186   0.00000  -0.10894   0.00000  -0.05478
 -9.67419   0.00000  -0.08185   0.00000  -0.10892   0.00000  -0.05478   0.00000  -0.08186   0.00000  -0.10894   0.00000  -0.05478
 -9.62406   0.00000  -0.08185   0.00000  -0.10892   0.00000  -0.05478   0.00000  -0.08186   0.00000  -0.10894   0.00000  -0.05478
 -9.57393   0.00000  -0.08185   0.00000  -0.10892   0.00000  -0.05478   0.00000  -0.08186   0.00000  -0.10894   0.00000  -0.05478
 -9.52381   0.00000  -0.08185   0.00000  -0.10892   0.00000  -0.05478   0.00000  -0.08186   0.00000  -0.10894   0.00000  -0.05478
 -9.47368   0.00000  -0.08185   0.00000  -0.10892   0.00000  -0.05478   0.00000  -0.08186   0.00000  -0.10894   0.00000  -0.05478
 -9.42356   0.00000  -0.08185   0.00000  -0.10892   0.00000  -0.05478   0.00000  -0.08186   0.00000  -0.10894   0.00000  -0.05478
 -9.37343   0.00000  -0.08185   0.00000  -0.10892   0.00000  -0.05478   0.00000  -0.08186   0.00000  -0.10894   0.00000  -0.05478
 -9.32331   0.00000  -0.08185   0.00000  -0.10892   0.00000  -0.05478   0.00000  -0.08186   0.00000  -0.10894   0.00000  -0.05478
 -9.27318   0.00000  -0.08185   0.00000  -0.10892   0.00000  -0.05478   0.00000  -0.08186   0.00000  -0.10894   0.00000  -0.05478
 -9.22306   0.00000  -0.08185   0.00000  -0.10892   0.00000  -0.05478   0.00000  -0.08186   0.00000  -0.10894   0.00000  -0.05478
 -9.17293   0.00000  -0.08185   0.00000  -0.10892   0.00000  -0.05478   0.00000  -0.08186   0.00000  -0.10894   0.00000  -0.05478
 -9.12281   0.00000  -0.08185   0.00000  -0.10892   0.00000  -0.05478   0.00000  -0.08186   0.00000  -0.10894   0.00000  -0.05478
 -9.07268   0.00000  -0.08185   0.00000  -0.10892   0.00000  -0.05478   0.00000  -0.08186   0.00000  -0.10894   0.00000  -0.05478
 -9.02256   0.00000  -0.08185   0.00000  -0.10892   0.00000  -0.05478   0.00000  -0.08186   0.00000  -0.10894   0.00000  -0.05478
 -8.97243   0.00000  -0.08185   0.00000  -0.10892   0.00000  -0.05478   0.00000  -0.08186   0.00000  -0.10894   0.00000  -0.05478
 -8.92231   0.00000  -0.08185   0.00000  -0.10892   0.00000  -0.05478   0.00000  -0.08186   0.00000  -0.10894   0.00000  -0.05478
 -8.87218   0.00000  -0.08185   0.00000  -0.10892   0.00000  -0.05478   0.00000  -0.08186   0.00000  -0.10894   0.00000  -0.05478
 -8.82206   0.00000  -0.08185   0.00000  -0.10892   0.00000  -0.05478   0.00000  -0.08186   0.00000  -0.10894   0.00000  -0.05478
 -8.77193   0.00000  -0.08185   0.00000  -0.10892   0.00000  -0.05478   0.00000  -0.08186   0.00000  -0.10894   0.00000  -0.05478
 -8.72180   0.00000  -0.08185   0.00000  -0.10892   0.00000  -0.05478   0.00000  -0.08186   0.00000  -0.10894   0.00000  -0.05478
 -8.67168   0.00000  -0.08185   0.00000  -0.10892   0.00000  -0.05478   0.00000  -0.08186   0.00000  -0.10894   0.00000  -0.05478
 -8.62155   0.00000  -0.08185   0.00000  -0.10892   0.00000  -0.05478   0.00000  -0.08186   0.00000  -0.10894   0.00000  -0.05478
 -8.57143   0.00000  -0.08185   0.00000  -0.10892   0.00000  -0.05478   0.00000  -0.08186   0.00000  -0.10894   0.00000  -0.05478
 -8.52130   0.00000  -0.08185   0.00000  -0.10892   0.00000  -0.05478   0.00000  -0.08186   0.00000  -0.10894   0.00000  -0.05478
 -8.47118   0.00000  -0.08185   0.00000  -0.10892   0.00000  -0.05478   0.00000  -0.08186   0.00000  -0.10894   0.00000  -0.05478
 -8.42105   0.00000  -0.08185   0.00000  -0.10892   0.00000  -0.05478   0.00000  -0.08186   0.00000  -0.10894   0.00000  -0.05478
 -8.37093   0.00000  -0.08185   0.00000  -0.10892   0.00000  -0.05478   0.00000  -0.08186   0.00000  -0.10894   0.00000  -0.05478
 -8.32080   0.00000  -0.08185   0.00000  -0.10892   0.00000  -0.05478   0.00000  -0.08186   0.00000  -0.10894   0.00000  -0.05478
 -8.27068   0.00000  -0.08185   0.00000  -0.10892   0.00000  -0.05478   0.00000  -0.08186   0.00000  -0.10894   0.00000  -0.05478
 -8.22055  -0.00000  -0.08185  -0.00000  -0.10892  -0.00000  -0.05478   0.00000  -0.08186   0.00000  -0.10894   0.00000  -0.05478
 -8.17043  -0.00000  -0.08185  -0.00000  -0.10892  -0.00000  -0.05478   0.00000  -0.08186   0.00000  -0.10894   0.00000  -0.05478
 -8.12030  -0.00000  -0.08185  -0.00000  -0.10892  -0.00000  -0.05478  -0.00000  -0.08186   0.00000  -0.10894  -0.00000  -0.05478
 -8.07018  -0.00000  -0.08185  -0.00000  -0.10892  -0.00000  -0.05478  -0.00000  -0.08186  -0.00000  -0.10894  -0.00000  -0.05478
 -8.02005  -0.00000  -0.08185  -0.00000  -0.10892  -0.00000  -0.05478  -0.00000  -0.08186  -0.00000  -0.10894  -0.00000  -0.05478
 -7.96992  -0.00000  -0.08185  -0.00000  -0.10892  -0.00000  -0.05478  -0.00000  -0.08186  -0.00000  -0.10894  -0.00000  -0.05478
 -7.91980  -0.00000  -0.08185  -0.00000  -0.10892  -0.00000  -0.05478  -0.00000  -0.08186  -0.00000  -0.10894  -0.00000  -0.05478
 -7.86967  -0.00000  -0.08185  -0.00000  -0.10892  -0.00000  -0.05478  -0.00000  -0.08186  -0.00000  -0.10894  -0.00000  -0.05478
 -7.81955  -0.00004  -0.08185  -0.00003  -0.10892  -0.00004  -0.05478  -0.00000  -0.08186  -0.00000  -0.10894  -0.00000  -0.05478
 -7.76942  -0.00021  -0.08186  -0.00016  -0.10893  -0.00025  -0.05479  -0.00000  -0.08186  -0.00000  -0.10894  -0.00000  -0.05478
 -7.71930  -0.00083  -0.08190  -0.00064  -0.10896  -0.00102  -0.05484  -0.00002  -0.08186  -0.00002  -0.10894  -0.00003  -0.05478
 -7.66917  -0.00235  -0.08202  -0.00180  -0.10906  -0.00290  -0.05499  -0.00015  -0.08187  -0.00011  -0.10894  -0.00019  -0.05479
 -7.61905  -0.00465  -0.08225  -0.00354  -0.10923  -0.00576  -0.05528  -0.00069  -0.08190  -0.00049  -0.10897  -0.00088  -0.05484
 -7.56892  -0.00645  -0.08258  -0.00489  -0.10948  -0.00802  -0.05568  -0.00218  -0.08201  -0.00156  -0.10905  -0.00279  -0.05498
 -7.51880  -0.00681  -0.08292  -0.00513  -0.10974  -0.00849  -0.05610  -0.00485  -0.08226  -0.00345  -0.10922  -0.00626  -0.05529
 -7.46867  -0.00701  -0.08327  -0.00524  -0.11000  -0.00879  -0.05654  -0.00757  -0.08263  -0.00535  -0.10949  -0.00978  -0.05578
 -7.41855  -0.00814  -0.08368  -0.00602  -0.11030  -0.01027  -0.05706  -0.00859  -0.08307  -0.00604  -0.10979  -0.01115  -0.05634
 -7.36842  -0.00865  -0.08411  -0.00633  -0.11062  -0.01097  -0.05761  -0.00865  -0.08350  -0.00601  -0.11009  -0.01129  -0.05691
 -7.31830  -0.00710  -0.08447  -0.00514  -0.11087  -0.00906  -0.05806  -0.00982  -0.08399  -0.00673  -0.11043  -0.01290  -0.05755
 -7.26817  -0.00489  -0.08471  -0.00341  -0.11105  -0.00636  -0.05838  -0.01117  -0.08455  -0.00762  -0.11081  -0.01472  -0.05829
 -7.21805  -0.00471  -0.08495  -0.00302  -0.11120  -0.00641  -0.05870  -0.01016  -0.08506  -0.00691  -0.11116  -0.01341  -0.05896
 -7.16792  -0.00684  -0.08529  -0.00418  -0.11141  -0.00949  -0.05918  -0.00722  -0.08542  -0.00485  -0.11140  -0.00958  -0.05944
 -7.11779  -0.00837  -0.08571  -0.00503  -0.11166  -0.01172  -0.05977  -0.00575  -0.08571  -0.00366  -0.11158  -0.00784  -0.05984
 -7.06767  -0.00752  -0.08609  -0.00432  -0.11188  -0.01073  -0.06030  -0.00775  -0.08610  -0.00464  -0.11182  -0.01087  -0.06038
 -7.01754  -0.00560  -0.08637  -0.00293  -0.11202  -0.00827  -0.06072  -0.01062  -0.08663  -0.00620  -0.11213  -0.01504  -0.06113
 -6.96742  -0.00399  -0.08657  -0.00176  -0.11211  -0.00621  -0.06103  -0.01074  -0.08717  -0.00611  -0.11243  -0.01537  -0.06190
 -6.91729  -0.00316  -0.08673  -0.00088  -0.11215  -0.00544  -0.06130  -0.00856  -0.08760  -0.00463  -0.11267  -0.01249  -0.06253
 -6.86717  -0.00337  -0.08690  -0.00043  -0.11218  -0.00632  -0.06162  -0.00620  -0.08791  -0.00311  -0.11282  -0.00930  -0.06300
 -6.81704  -0.00393  -0.08709  -0.00059  -0.11221  -0.00727  -0.06198  -0.00458  -0.08814  -0.00204  -0.11292  -0.00712  -0.06335
 -6.76692  -0.00419  -0.08730  -0.00136  -0.11227  -0.00701  -0.06233  -0.00459  -0.08837  -0.00167  -0.11301  -0.00750  -0.06373
 -6.71679  -0.00477  -0.08754  -0.00268  -0.11241  -0.00685  -0.06268  -0.00594  -0.08867  -0.00188  -0.11310  -0.00999  -0.06423
 -6.66667  -0.00658  -0.08787  -0.00460  -0.11264  -0.00856  -0.06311  -0.00640  -0.08899  -0.00197  -0.11320  -0.01083  -0.06477
 -6.61654  -0.01090  -0.08842  -0.00795  -0.11304  -0.01385  -0.06380  -0.00554  -0.08926  -0.00204  -0.11330  -0.00904  -0.06523
 -6.56642  -0.01894  -0.08937  -0.01379  -0.11373  -0.02409  -0.06501  -0.00603  -0.08957  -0.00328  -0.11347  -0.00877  -0.06567
 -6.51629  -0.02775  -0.09076  -0.02018  -0.11474  -0.03532  -0.06678  -0.01019  -0.09008  -0.00658  -0.11380  -0.01379  -0.06636
 -6.46617  -0.03197  -0.09236  -0.02326  -0.11591  -0.04067  -0.06882  -0.01834  -0.09100  -0.01203  -0.11440  -0.02466  -0.06759
 -6.41604  -0.03366  -0.09405  -0.02426  -0.11712  -0.04305  -0.07098  -0.02855  -0.09243  -0.01852  -0.11533  -0.03859  -0.06953
 -6.36591  -0.03901  -0.09600  -0.02761  -0.11851  -0.05042  -0.07350  -0.03583  -0.09422  -0.02289  -0.11648  -0.04877  -0.07197
 -6.31579  -0.04384  -0.09820  -0.03081  -0.12005  -0.05687  -0.07635  -0.03886  -0.09617  -0.02422  -0.11769  -0.05350  -0.07465
 -6.26566  -0.03951  -0.10018  -0.02794  -0.12145  -0.05108  -0.07891  -0.04373  -0.09836  -0.02654  -0.11902  -0.06092  -0.07771
 -6.21554  -0.02980  -0.10168  -0.02088  -0.12250  -0.03871  -0.08085  -0.05012  -0.10088  -0.03007  -0.12053  -0.07018  -0.08123
 -6.16541  -0.02697  -0.10303  -0.01704  -0.12335  -0.03691  -0.08270  -0.04810  -0.10329  -0.02887  -0.12197  -0.06733  -0.08460
 -6.11529  -0.03360  -0.10471  -0.01788  -0.12425  -0.04932  -0.08518  -0.03695  -0.10514  -0.02215  -0.12308  -0.05176  -0.08719
 -6.06516  -0.03951  -0.10669  -0.01811  -0.12516  -0.06091  -0.08823  -0.02919  -0.10660  -0.01655  -0.12391  -0.04183  -0.08929
 -6.01504  -0.03851  -0.10862  -0.01557  -0.12594  -0.06145  -0.09131  -0.03259  -0.10824  -0.01607  -0.12472  -0.04911  -0.09175
 -5.96491  -0.03606  -0.11043  -0.01329  -0.12660  -0.05882  -0.09426  -0.04089  -0.11029  -0.01755  -0.12560  -0.06423  -0.09497
 -5.91479  -0.03923  -0.11240  -0.01329  -0.12727  -0.06517  -0.09753  -0.04519  -0.11255  -0.01737  -0.12647  -0.07301  -0.09863
 -5.86466  -0.04742  -0.11477  -0.01521  -0.12803  -0.07964  -0.10152  -0.04572  -0.11484  -0.01658  -0.12730  -0.07485  -0.10238
 -5.81454  -0.05192  -0.11738  -0.01789  -0.12893  -0.08595  -0.10583  -0.04677  -0.11719  -0.01693  -0.12815  -0.07660  -0.10622
 -5.76441  -0.04719  -0.11974  -0.02044  -0.12995  -0.07394  -0.10953  -0.05017  -0.11970  -0.01778  -0.12904  -0.08255  -0.11036
 -5.71429  -0.03976  -0.12174  -0.02400  -0.13116  -0.05552  -0.11231  -0.05499  -0.12246  -0.01932  -0.13001  -0.09066  -0.11491
 -5.66416  -0.03925  -0.12370  -0.03088  -0.13270  -0.04762  -0.11470  -0.05799  -0.12536  -0.02384  -0.13120  -0.09215  -0.11952
 -5.61404  -0.04723  -0.12607  -0.04113  -0.13476  -0.05332  -0.11737  -0.05840  -0.12829  -0.03238  -0.13283  -0.08442  -0.12376
 -5.56391  -0.05779  -0.12897  -0.05091  -0.13732  -0.06468  -0.12062  -0.05979  -0.13129  -0.04265  -0.13497  -0.07693  -0.12761
 -5.51378  -0.06458  -0.13220  -0.05505  -0.14008  -0.07412  -0.12433  -0.06427  -0.13451  -0.05114  -0.13753  -0.07740  -0.13149
 -5.46366  -0.06681  -0.13555  -0.05332  -0.14275  -0.08030  -0.12836  -0.07033  -0.13804  -0.05673  -0.14037  -0.08393  -0.13570
 -5.41353  -0.06930  -0.13903  -0.05118  -0.14531  -0.08741  -0.13274  -0.07461  -0.14178  -0.05946  -0.14335  -0.08976  -0.14020
 -5.36341  -0.07501  -0.14279  -0.05225  -0.14793  -0.09777  -0.13764  -0.07648  -0.14561  -0.05931  -0.14633  -0.09365  -0.14489
 -5.31328  -0.08133  -0.14686  -0.05721  -0.15080  -0.10546  -0.14293  -0.08228  -0.14973  -0.06030  -0.14935  -0.10426  -0.15012
 -5.26316  -0.08726  -0.15124  -0.07042  -0.15433  -0.10410  -0.14814  -0.09447  -0.15447  -0.06684  -0.15270  -0.12209  -0.15624
 -5.21303  -0.09548  -0.15602  -0.09539  -0.15911  -0.09558  -0.15293  -0.10450  -0.15971  -0.07796  -0.15661  -0.13103  -0.16281
 -5.16291  -0.10523  -0.16130  -0.12464  -0.16536  -0.08581  -0.15723  -0.10839  -0.16514  -0.09441  -0.16134  -0.12237  -0.16894
 -5.11278  -0.11262  -0.16694  -0.14590  -0.17267  -0.07934  -0.16121  -0.11359  -0.17083  -0.12171  -0.16744  -0.10547  -0.17423
 -5.06266  -0.11885  -0.17290  -0.15841  -0.18061  -0.07928  -0.16519  -0.12510  -0.17710  -0.15805  -0.17536  -0.09214  -0.17885
 -5.01253  -0.13167  -0.17950  -0.17537  -0.18940  -0.08798  -0.16960  -0.13867  -0.18405  -0.19006  -0.18489  -0.08728  -0.18322
 -4.96241  -0.15587  -0.18731  -0.20690  -0.19977  -0.10484  -0.17485  -0.15122  -0.19163  -0.20928  -0.19538  -0.09316  -0.18789
 -4.91228  -0.18417  -0.19654  -0.24626  -0.21212  -0.12208  -0.18097  -0.16636  -0.19997  -0.22135  -0.20647  -0.11137  -0.19347
 -4.86216  -0.20168  -0.20665  -0.27572  -0.22594  -0.12764  -0.18737  -0.18388  -0.20919  -0.23449  -0.21823  -0.13327  -0.20015
 -4.81203  -0.19879  -0.21662  -0.28121  -0.24003  -0.11637  -0.19320  -0.19468  -0.21895  -0.24942  -0.23073  -0.13995  -0.20717
 -4.76190  -0.17966  -0.22562  -0.26317  -0.25323  -0.09615  -0.19802  -0.19049  -0.22850  -0.25853  -0.24369  -0.12246  -0.21331
 -4.71178  -0.16084  -0.23369  -0.24070  -0.26529  -0.08099  -0.20208  -0.17283  -0.23716  -0.25242  -0.25634  -0.09324  -0.21798
 -4.66165  -0.15711  -0.24156  -0.23752  -0.27720  -0.07671  -0.20592  -0.15273  -0.24482  -0.23411  -0.26808  -0.07135  -0.22156
 -4.61153  -0.16708  -0.24994  -0.25697  -0.29008  -0.07720  -0.20979  -0.14401  -0.25204  -0.22239  -0.27922  -0.06563  -0.22485
 -4.56140  -0.17870  -0.25889  -0.28038  -0.30413  -0.07702  -0.21365  -0.15234  -0.25967  -0.23251  -0.29088  -0.07217  -0.22846
 -4.51128  -0.18512  -0.26817  -0.29238  -0.31879  -0.07785  -0.21756  -0.16853  -0.26812  -0.25751  -0.30379  -0.07954  -0.23245
 -4.46115  -0.18725  -0.27756  -0.29342  -0.33350  -0.08108  -0.22162  -0.17569  -0.27693  -0.27358  -0.31750  -0.07781  -0.23635
 -4.41103  -0.18588  -0.28688  -0.28557  -0.34781  -0.08618  -0.22594  -0.16993  -0.28544  -0.27153  -0.33111  -0.06832  -0.23978
 -4.36090  -0.18218  -0.29601  -0.26953  -0.36132  -0.09482  -0.23069  -0.16520  -0.29372  -0.26739  -0.34451  -0.06301  -0.24293
 -4.31078  -0.17994  -0.30503  -0.25470  -0.37409  -0.10519  -0.23597  -0.17069  -0.30228  -0.27158  -0.35813  -0.06980  -0.24643
 -4.26065  -0.18061  -0.31408  -0.25024  -0.38663  -0.11099  -0.24153  -0.18046  -0.31133  -0.27766  -0.37204  -0.08327  -0.25061
 -4.21053  -0.18263  -0.32323  -0.25191  -0.39926  -0.11336  -0.24721  -0.18552  -0.32062  -0.27852  -0.38601  -0.09252  -0.25524
 -4.16040  -0.18134  -0.33232  -0.24464  -0.41152  -0.11805  -0.25313  -0.18496  -0.32990  -0.27524  -0.39980  -0.09468  -0.25999
 -4.11028  -0.16983  -0.34084  -0.21879  -0.42249  -0.12086  -0.25919  -0.18687  -0.33926  -0.27648  -0.41366  -0.09726  -0.26487
 -4.06015  -0.14991  -0.34835  -0.18437  -0.43173  -0.11545  -0.26497  -0.19516  -0.34905  -0.28385  -0.42789  -0.10646  -0.27020
 -4.01003  -0.13495  -0.35512  -0.16101  -0.43980  -0.10889  -0.27043  -0.20033  -0.35909  -0.28210  -0.44203  -0.11856  -0.27614
 -3.95990  -0.13276  -0.36177  -0.15560  -0.44760  -0.10993  -0.27594  -0.19118  -0.36867  -0.25767  -0.45494  -0.12469  -0.28239
 -3.90977  -0.13644  -0.36861  -0.15992  -0.45561  -0.11296  -0.28160  -0.17026  -0.37720  -0.21917  -0.46593  -0.12135  -0.28848
 -3.85965  -0.13766  -0.37551  -0.16526  -0.46390  -0.11006  -0.28712  -0.15369  -0.38491  -0.19079  -0.47549  -0.11659  -0.29432
 -3.80952  -0.13608  -0.38233  -0.16769  -0.47230  -0.10447  -0.29236  -0.15565  -0.39271  -0.18935  -0.48499  -0.12195  -0.30043
 -3.75940  -0.13413  -0.38905  -0.16636  -0.48064  -0.10190  -0.29747  -0.17329  -0.40140  -0.20887  -0.49546  -0.13771  -0.30734
 -3.70927  -0.13138  -0.39564  -0.16280  -0.48880  -0.09997  -0.30248  -0.18884  -0.41086  -0.22707  -0.50684  -0.15060  -0.31489
 -3.65915  -0.12545  -0.40193  -0.15740  -0.49669  -0.09350  -0.30716  -0.19018  -0.42039  -0.22919  -0.51833  -0.15116  -0.32246
 -3.60902  -0.11746  -0.40782  -0.14955  -0.50419  -0.08538  -0.31144  -0.18070  -0.42945  -0.21759  -0.52923  -0.14381  -0.32967
 -3.55890  -0.11189  -0.41342  -0.14025  -0.51122  -0.08354  -0.31563  -0.16604  -0.43777  -0.19839  -0.53918  -0.13369  -0.33637
 -3.50877  -0.11042  -0.41896  -0.13094  -0.51778  -0.08990  -0.32014  -0.15076  -0.44533  -0.17883  -0.54814  -0.12270  -0.34252
 -3.45865  -0.10950  -0.42445  -0.12162  -0.52388  -0.09739  -0.32502  -0.14191  -0.45244  -0.16972  -0.55665  -0.11410  -0.34824
 -3.40852  -0.10485  -0.42970  -0.11230  -0.52951  -0.09740  -0.32990  -0.13953  -0.45944  -0.17108  -0.56522  -0.10798  -0.35365
 -3.35840  -0.09694  -0.43456  -0.10600  -0.53482  -0.08787  -0.33430  -0.13607  -0.46626  -0.16966  -0.57373  -0.10247  -0.35879
 -3.30827  -0.08984  -0.43907  -0.10397  -0.54003  -0.07570  -0.33810  -0.12783  -0.47267  -0.15773  -0.58163  -0.09792  -0.36370
 -3.25815  -0.08623  -0.44339  -0.10002  -0.54505  -0.07245  -0.34173  -0.11532  -0.47845  -0.13872  -0.58859  -0.09192  -0.36831
 -3.20802  -0.08499  -0.44765  -0.08755  -0.54943  -0.08244  -0.34586  -0.10098  -0.48351  -0.12059  -0.59463  -0.08137  -0.37238
 -3.15789  -0.08292  -0.45181  -0.07068  -0.55298  -0.09516  -0.35063  -0.09213  -0.48813  -0.11275  -0.60028  -0.07151  -0.37597
 -3.10777  -0.07878  -0.45575  -0.06242  -0.55611  -0.09513  -0.35540  -0.09159  -0.49272  -0.11499  -0.60605  -0.06818  -0.37939
 -3.05764  -0.07420  -0.45947  -0.06864  -0.55955  -0.07977  -0.35940  -0.09027  -0.49724  -0.11423  -0.61177  -0.06631  -0.38271
 -3.00752  -0.07193  -0.46308  -0.08111  -0.56361  -0.06276  -0.36255  -0.08030  -0.50127  -0.10289  -0.61693  -0.05771  -0.38560
 -2.95739  -0.07353  -0.46676  -0.08890  -0.56807  -0.05817  -0.36546  -0.06574  -0.50456  -0.08815  -0.62135  -0.04333  -0.38778
 -2.90727  -0.07578  -0.47056  -0.08619  -0.57239  -0.06538  -0.36874  -0.05503  -0.50732  -0.07885  -0.62530  -0.03121  -0.38934
 -2.85714  -0.07378  -0.47426  -0.07265  -0.57603  -0.07491  -0.37249  -0.05055  -0.50985  -0.07475  -0.62905  -0.02634  -0.39066
 -2.80702  -0.06874  -0.47771  -0.05434  -0.57875  -0.08313  -0.37666  -0.04866  -0.51229  -0.06999  -0.63256  -0.02732  -0.39203
 -2.75689  -0.06354  -0.48089  -0.03820  -0.58067  -0.08888  -0.38111  -0.04520  -0.51456  -0.05962  -0.63555  -0.03079  -0.39357
 -2.70677  -0.05509  -0.48365  -0.02642  -0.58199  -0.08376  -0.38531  -0.03853  -0.51649  -0.04414  -0.63776  -0.03293  -0.39522
 -2.65664  -0.04120  -0.48572  -0.02001  -0.58300  -0.06240  -0.38844  -0.02858  -0.51792  -0.02745  -0.63913  -0.02970  -0.39671
 -2.60652  -0.02656  -0.48705  -0.01934  -0.58397  -0.03379  -0.39013  -0.01486  -0.51867  -0.00917  -0.63959  -0.02054  -0.39774
 -2.55639  -0.01550  -0.48783  -0.01995  -0.58497  -0.01106  -0.39069   0.00239  -0.51855   0.01231  -0.63898  -0.00754  -0.39812
 -2.50627  -0.00780  -0.48822  -0.01616  -0.58578   0.00056  -0.39066   0.02059  -0.51752   0.03332  -0.63731   0.00785  -0.39773
 -2.45614  -0.00125  -0.48828  -0.00677  -0.58611   0.00427  -0.39045   0.03481  -0.51577   0.04903  -0.63485   0.02058  -0.39669
 -2.40602   0.00711  -0.48792   0.00586  -0.58582   0.00836  -0.39003   0.04003  -0.51377   0.05745  -0.63197   0.02261  -0.39556
 -2.35589   0.01916  -0.48696   0.02044  -0.58480   0.01787  -0.38913   0.03689  -0.51192   0.06028  -0.62895   0.01350  -0.39488
 -2.30576   0.03409  -0.48526   0.03951  -0.58282   0.02866  -0.38770   0.03176  -0.51032   0.06148  -0.62587   0.00203  -0.39478
 -2.25564   0.04873  -0.48281   0.06454  -0.57958   0.03293  -0.38605   0.03024  -0.50881   0.06355  -0.62268  -0.00307  -0.39494
 -2.20551   0.05856  -0.47988   0.09109  -0.57501   0.02603  -0.38474   0.03404  -0.50710   0.06757  -0.61929   0.00052  -0.39491
 -2.15539   0.06055  -0.47684   0.11055  -0.56947   0.01055  -0.38421   0.04046  -0.50507   0.07231  -0.61567   0.00862  -0.39448
 -2.10526   0.05658  -0.47401   0.11641  -0.56364  -0.00325  -0.38438   0.04442  -0.50285   0.07366  -0.61198   0.01518  -0.39372
 -2.05514   0.05260  -0.47137   0.11136  -0.55806  -0.00615  -0.38468   0.04481  -0.50060   0.07323  -0.60831   0.01639  -0.39290
 -2.00501   0.05421  -0.46865   0.10541  -0.55277   0.00301  -0.38453   0.04562  -0.49831   0.07855  -0.60437   0.01270  -0.39226
 -1.95489   0.06263  -0.46551   0.10688  -0.54741   0.01837  -0.38361   0.05140  -0.49574   0.09222  -0.59975   0.01057  -0.39173
 -1.90476   0.07406  -0.46180   0.11704  -0.54155   0.03108  -0.38205   0.06361  -0.49255   0.10985  -0.59424   0.01737  -0.39086
 -1.85464   0.08252  -0.45766   0.12892  -0.53509   0.03612  -0.38024   0.07735  -0.48867   0.12201  -0.58813   0.03268  -0.38922
 -1.80451   0.08244  -0.45353   0.12905  -0.52862   0.03583  -0.37845   0.08631  -0.48435   0.12209  -0.58201   0.05052  -0.38669
 -1.75439   0.07160  -0.44994   0.10851  -0.52318   0.03469  -0.37671   0.09057  -0.47981   0.11532  -0.57623   0.06582  -0.38339
 -1.70426   0.05551  -0.44716   0.07637  -0.51935   0.03465  -0.37497   0.09251  -0.47517   0.11080  -0.57067   0.07421  -0.37967
 -1.65414   0.04325  -0.44499   0.05124  -0.51678   0.03526  -0.37320   0.09301  -0.47051   0.11157  -0.56508   0.07446  -0.37594
 -1.60401   0.03685  -0.44315   0.03950  -0.51480   0.03421  -0.37149   0.09261  -0.46587   0.11571  -0.55928   0.06950  -0.37245
 -1.55388   0.03147  -0.44157   0.03398  -0.51310   0.02897  -0.37004   0.08913  -0.46140   0.11869  -0.55333   0.05956  -0.36947
 -1.50376   0.02497  -0.44032   0.02920  -0.51163   0.02074  -0.36900   0.08039  -0.45737   0.11836  -0.54740   0.04242  -0.36734
 -1.45363   0.01979  -0.43932   0.02504  -0.51038   0.01455  -0.36827   0.07131  -0.45379   0.12085  -0.54134   0.02176  -0.36625
 -1.40351   0.01689  -0.43848   0.02114  -0.50932   0.01264  -0.36764   0.07068  -0.45025   0.13381  -0.53463   0.00755  -0.36587
 -1.35338   0.01529  -0.43771   0.01805  -0.50842   0.01253  -0.36701   0.07973  -0.44625   0.15436  -0.52689   0.00510  -0.36562
 -1.30326   0.01508  -0.43696   0.01698  -0.50756   0.01319  -0.36635   0.08913  -0.44179   0.16934  -0.51841   0.00892  -0.36517
 -1.25313   0.01598  -0.43615   0.01597  -0.50676   0.01599  -0.36554   0.08934  -0.43731   0.16625  -0.51007   0.01244  -0.36455
 -1.20301   0.01595  -0.43535   0.01232  -0.50615   0.01959  -0.36456   0.07986  -0.43331   0.14453  -0.50283   0.01519  -0.36378
 -1.15288   0.01331  -0.43469   0.00574  -0.50586   0.02089  -0.36352   0.06765  -0.42991   0.11675  -0.49698   0.01856  -0.36285
 -1.10276   0.00970  -0.43420  -0.00123  -0.50592   0.02062  -0.36248   0.06119  -0.42685   0.09825  -0.49205   0.02413  -0.36164
 -1.05263   0.00982  -0.43371  -0.00241  -0.50604   0.02205  -0.36138   0.06496  -0.42359   0.09618  -0.48723   0.03374  -0.35995
 -1.00251   0.01746  -0.43283   0.00883  -0.50560   0.02608  -0.36007   0.07545  -0.41981   0.10823  -0.48181   0.04267  -0.35781
 -0.95238   0.03062  -0.43130   0.02962  -0.50411   0.03161  -0.35848   0.08247  -0.41568   0.12487  -0.47555   0.04006  -0.35581
 -0.90226   0.04233  -0.42918   0.04716  -0.50175   0.03749  -0.35661   0.07844  -0.41174   0.13302  -0.46888   0.02385  -0.35461
 -0.85213   0.04825  -0.42676   0.05503  -0.49899   0.04148  -0.35453   0.06732  -0.40837   0.12808  -0.46246   0.00655  -0.35428
 -0.80201   0.04921  -0.42429   0.05716  -0.49613   0.04127  -0.35246   0.05934  -0.40540   0.11772  -0.45656   0.00095  -0.35423
 -0.75188   0.04692  -0.42194   0.05492  -0.49337   0.03893  -0.35051   0.05931  -0.40242   0.10946  -0.45107   0.00916  -0.35377
 -0.70175   0.04290  -0.41979   0.04812  -0.49096   0.03769  -0.34862   0.06373  -0.39923   0.10536  -0.44579   0.02210  -0.35267
 -0.65163   0.04024  -0.41777   0.04404  -0.48875   0.03645  -0.34679   0.06555  -0.39594   0.10587  -0.44048   0.02524  -0.35140
 -0.60150   0.04332  -0.41560   0.05151  -0.48617   0.03513  -0.34503   0.06264  -0.39280   0.10831  -0.43505   0.01697  -0.35055
 -0.55138   0.05458  -0.41286   0.07050  -0.48264   0.03866  -0.34309   0.05991  -0.38980   0.10865  -0.42961   0.01116  -0.34999
 -0.50125   0.07151  -0.40928   0.09222  -0.47802   0.05080  -0.34054   0.06128  -0.38673   0.10707  -0.42424   0.01549  -0.34921
 -0.45113   0.08829  -0.40485   0.10826  -0.47259   0.06832  -0.33712   0.06603  -0.38342   0.10382  -0.41904   0.02824  -0.34780
 -0.40100   0.09970  -0.39986   0.11703  -0.46672   0.08237  -0.33299   0.07178  -0.37982   0.09643  -0.41420   0.04713  -0.34544
 -0.35088   0.10165  -0.39476   0.11861  -0.46078   0.08469  -0.32875   0.07511  -0.37606   0.08646  -0.40987   0.06376  -0.34224
 -0.30075   0.09515  -0.38999   0.11350  -0.45509   0.07680  -0.32490   0.07411  -0.37234   0.08234  -0.40574   0.06589  -0.33894
 -0.25063   0.08768  -0.38560   0.10645  -0.44975   0.06890  -0.32144   0.07186  -0.36874   0.09013  -0.40122   0.05359  -0.33625
 -0.20050   0.08330  -0.38142   0.10107  -0.44469   0.06553  -0.31816   0.07052  -0.36520   0.10278  -0.39607   0.03825  -0.33433
 -0.15038   0.08014  -0.37741   0.09726  -0.43981   0.06301  -0.31500   0.06675  -0.36186   0.10530  -0.39079   0.02820  -0.33292
 -0.10025   0.07683  -0.37355   0.09448  -0.43508   0.05919  -0.31203   0.05895  -0.35890   0.09231  -0.38617   0.02559  -0.33164
 -0.05013   0.07344  -0.36987   0.09137  -0.43050   0.05551  -0.30925   0.05114  -0.35634   0.07171  -0.38257   0.03058  -0.33011
  0.00000   0.06978  -0.36637   0.08699  -0.42613   0.05257  -0.30662   0.04640  -0.35401   0.05318  -0.37991   0.03962  -0.32812
  0.05013   0.06672  -0.36303   0.08412  -0.42192   0.04932  -0.30414   0.04436  -0.35179   0.04267  -0.37777   0.04606  -0.32581
  0.10025   0.06619  -0.35971   0.08737  -0.41754   0.04502  -0.30189   0.04455  -0.34956   0.04135  -0.37570   0.04776  -0.32342
  0.15038   0.06867  -0.35627   0.09689  -0.41268   0.04045  -0.29986   0.04672  -0.34721   0.04484  -0.37345   0.04860  -0.32098
  0.20050   0.07074  -0.35272   0.10529  -0.40740   0.03620  -0.29804   0.04982  -0.34472   0.04838  -0.37102   0.05126  -0.31841
  0.25063   0.06963  -0.34923   0.10551  -0.40212   0.03376  -0.29635   0.05191  -0.34212   0.04991  -0.36852   0.05390  -0.31571
  0.30075   0.06884  -0.34578   0.09932  -0.39714   0.03836  -0.29443   0.05134  -0.33954   0.04771  -0.36613   0.05497  -0.31295
  0.35088   0.07095  -0.34223   0.09226  -0.39251   0.04964  -0.29194   0.04912  -0.33708   0.04323  -0.36396   0.05501  -0.31020
  0.40100   0.07294  -0.33857   0.08703  -0.38815   0.05885  -0.28899   0.04819  -0.33466   0.04299  -0.36181   0.05340  -0.30752
  0.45113   0.07211  -0.33496   0.08299  -0.38399   0.06123  -0.28592   0.05031  -0.33214   0.05092  -0.35925   0.04969  -0.30503
  0.50125   0.06728  -0.33158   0.07692  -0.38013   0.05765  -0.28303   0.05468  -0.32940   0.06339  -0.35608   0.04596  -0.30273
  0.55138   0.05824  -0.32866   0.06782  -0.37674   0.04866  -0.28059   0.05880  -0.32645   0.07347  -0.35239   0.04412  -0.30051
  0.60150   0.04923  -0.32620   0.06108  -0.37367   0.03739  -0.27872   0.06111  -0.32339   0.07749  -0.34851   0.04473  -0.29827
  0.65163   0.04627  -0.32388   0.06278  -0.37053   0.02976  -0.27723   0.06336  -0.32022   0.07801  -0.34460   0.04870  -0.29583
  0.70175   0.04908  -0.32142   0.07008  -0.36701   0.02809  -0.27582   0.06744  -0.31684   0.07938  -0.34062   0.05550  -0.29305
  0.75188   0.05177  -0.31882   0.07456  -0.36328   0.02897  -0.27437   0.07191  -0.31323   0.08223  -0.33650   0.06160  -0.28996
  0.80201   0.05110  -0.31626   0.07419  -0.35956   0.02802  -0.27296   0.07450  -0.30950   0.08609  -0.33218   0.06290  -0.28681
  0.85213   0.04765  -0.31387   0.07100  -0.35600   0.02429  -0.27174   0.07506  -0.30573   0.09250  -0.32755   0.05761  -0.28392
  0.90226   0.04318  -0.31171   0.06501  -0.35274   0.02134  -0.27068   0.07358  -0.30205   0.09964  -0.32255   0.04753  -0.28154
  0.95238   0.04148  -0.30963   0.05914  -0.34978   0.02383  -0.26948   0.06790  -0.29864   0.09967  -0.31756   0.03612  -0.27973
  1.00251   0.04462  -0.30739   0.05780  -0.34688   0.03145  -0.26790   0.05757  -0.29576   0.08802  -0.31315   0.02712  -0.27837
  1.05263   0.05078  -0.30485   0.06162  -0.34379   0.03995  -0.26590   0.04696  -0.29340   0.06908  -0.30968   0.02483  -0.27712
  1.10276   0.05948  -0.30186   0.07165  -0.34020   0.04732  -0.26353   0.04038  -0.29138   0.05096  -0.30713   0.02979  -0.27563
  1.15288   0.07191  -0.29826   0.09071  -0.33565   0.05311  -0.26087   0.03831  -0.28946   0.04044  -0.30510   0.03617  -0.27382
  1.20301   0.08550  -0.29397   0.11610  -0.32983   0.05490  -0.25812   0.04004  -0.28745   0.04110  -0.30304   0.03899  -0.27186
  1.25313   0.09319  -0.28930   0.13640  -0.32299   0.04997  -0.25561   0.04528  -0.28518   0.05124  -0.30047   0.03933  -0.26989
  1.30326   0.08971  -0.28481   0.14018  -0.31597   0.03923  -0.25364   0.05247  -0.28255   0.06508  -0.29721   0.03985  -0.26789
  1.35338   0.07759  -0.28092   0.12821  -0.30954   0.02697  -0.25229   0.05929  -0.27958   0.07815  -0.29329   0.04044  -0.26587