  36   36    1    2
  1.2113498e+03   8.0533446e-10   8.0533444e-10   2.1566833e-09   5.0000000e-16
            1.000000e-04
  CAR
 DOS and projected DOS file by LOBSTER. Energy is shifted such that the Fermi level lies at 0 eV. 
     11.75830250      -8.29182282   401       1.73323984       1.00000000
-10.02506   0.00000   0.00000 108.00000 108.00000
 -9.97494   0.00000   0.00000 108.00000 108.00000
 -9.92481   0.00000   0.00000 108.00000 108.00000
 -9.87469   0.00000   0.00000 108.00000 108.00000
 -9.82456   0.00000   0.00000 108.00000 108.00000
 -9.77444   0.00000   0.00000 108.00000 108.00000
 -9.72431   0.00000   0.00000 108.00000 108.00000
 -9.67419   0.00000   0.00000 108.00000 108.00000
 -9.62406   0.00000   0.00000 108.00000 108.00000
 -9.57393   0.00000   0.00000 108.00000 108.00000
 -9.52381   0.00000   0.00000 108.00000 108.00000
 -9.47368   0.00000   0.00000 108.00000 108.00000
 -9.42356   0.00000   0.00000 108.00000 108.00000
 -9.37343   0.00000   0.00000 108.00000 108.00000
 -9.32331   0.00000   0.00000 108.00000 108.00000
 -9.27318   0.00000   0.00000 108.00000 108.00000
 -9.22306   0.00000   0.00000 108.00000 108.00000
 -9.17293   0.00000   0.00000 108.00000 108.00000
 -9.12281   0.00000   0.00000 108.00000 108.00000
 -9.07268   0.00000   0.00000 108.00000 108.00000
 -9.02256   0.00000   0.00000 108.00000 108.00000
 -8.97243   0.00000   0.00000 108.00000 108.00000
 -8.92231   0.00000   0.00000 108.00000 108.00000
 -8.87218   0.00000   0.00000 108.00000 108.00000
 -8.82206   0.00000   0.00000 108.00000 108.00000
 -8.77193   0.00000   0.00000 108.00000 108.00000
 -8.72180   0.00000   0.00000 108.00000 108.00000
 -8.67168   0.00000   0.00000 108.00000 108.00000
 -8.62155   0.00000   0.00000 108.00000 108.00000
 -8.57143   0.00000   0.00000 108.00000 108.00000
 -8.52130   0.00000   0.00000 108.00000 108.00000
 -8.47118   0.00000   0.00000 108.00000 108.00000
 -8.42105   0.00000   0.00000 108.00000 108.00000
 -8.37093   0.00000   0.00000 108.00000 108.00000
 -8.32080   0.00000   0.00000 108.00000 108.00000
 -8.27068   0.00000   0.00000 108.00000 108.00000
 -8.22055   0.00000   0.00000 108.00000 108.00000
 -8.17043   0.00000   0.00000 108.00000 108.00000
 -8.12030   0.00000   0.00000 108.00000 108.00000
 -8.07018   0.00000   0.00000 108.00000 108.00000
 -8.02005   0.00000   0.00000 108.00000 108.00000
 -7.96992   0.00000   0.00000 108.00000 108.00000
 -7.91980   0.00004   0.00000 108.00000 108.00000
 -7.86967   0.00049   0.00000 108.00003 108.00000
 -7.81955   0.00428   0.00001 108.00024 108.00000
 -7.76942   0.02500   0.00021 108.00149 108.00001
 -7.71930   0.10083   0.00216 108.00655 108.00012
 -7.66917   0.28632   0.01435 108.02090 108.00084
 -7.61905   0.56992   0.06528 108.04947 108.00411
 -7.56892   0.79683   0.20843 108.08941 108.01456
 -7.51880   0.85969   0.46853 108.13250 108.03804
 -7.46867   0.92654   0.73599 108.17894 108.07494
 -7.41855   1.12257   0.84742 108.23521 108.11741
 -7.36842   1.22370   0.88131 108.29655 108.16159
 -7.31830   1.02674   1.04115 108.34802 108.21378
 -7.26817   0.74394   1.21570 108.38531 108.27471
 -7.21805   0.79392   1.12707 108.42510 108.33121
 -7.16792   1.21238   0.82576 108.48587 108.37260
 -7.11779   1.51737   0.71643 108.56193 108.40851
 -7.06767   1.41326   1.03741 108.63277 108.46051
 -7.01754   1.12289   1.45110 108.68906 108.53325
 -6.96742   0.87104   1.49671 108.73272 108.60827
 -6.91729   0.80264   1.23902 108.77295 108.67038
 -6.86717   1.05142   0.95644 108.82565 108.71832
 -6.81704   1.38125   0.80627 108.89489 108.75873
 -6.76692   1.39602   0.96184 108.96486 108.80695
 -6.71679   1.15792   1.31218 109.02291 108.87272
 -6.66667   1.02432   1.40609 109.07425 108.94320
 -6.61654   1.17569   1.15653 109.13318 109.00117
 -6.56642   1.56034   0.96140 109.21139 109.04936
 -6.51629   1.93408   1.07717 109.30834 109.10336
 -6.46617   2.08063   1.44634 109.41263 109.17586
 -6.41604   2.17877   1.88428 109.52184 109.27031
 -6.36591   2.57258   2.15137 109.65080 109.37814
 -6.31579   3.04608   2.24072 109.80348 109.49046
 -6.26566   2.97567   2.49661 109.95264 109.61560
 -6.21554   2.39850   2.91320 110.07286 109.76163
 -6.16541   2.08420   2.92503 110.17733 109.90825
 -6.11529   2.35594   2.41355 110.29543 110.02923
 -6.06516   2.75715   2.03616 110.43363 110.13129
 -6.01504   3.03590   2.27003 110.58580 110.24508
 -5.96491   3.43656   2.82674 110.75806 110.38677
 -5.91479   4.02706   3.23905 110.95992 110.54913
 -5.86466   4.50897   3.47795 111.18593 110.72346
 -5.81454   4.61844   3.70343 111.41743 110.90909
 -5.76441   4.60502   3.98745 111.64826 111.10897
 -5.71429   5.07786   4.33176 111.90279 111.32610
 -5.66416   6.43124   4.81428 112.22516 111.56741
 -5.61404   8.57581   5.71031 112.65503 111.85365
 -5.56391  10.84995   7.15150 113.19888 112.21212
 -5.51378  12.41776   8.87254 113.82133 112.65686
 -5.46366  13.01861  10.58345 114.47389 113.18735
 -5.41353  13.27847  12.05020 115.13948 113.79137
 -5.36341  14.05736  12.99751 115.84411 114.44288
 -5.31328  15.31176  13.70535 116.61161 115.12986
 -5.26316  16.22308  14.77314 117.42480 115.87037
 -5.21303  16.38513  16.03285 118.24611 116.67402
 -5.16291  16.29908  16.80029 119.06311 117.51614
 -5.11278  16.81699  16.93725 119.90606 118.36513
 -5.06266  18.23456  16.99859 120.82008 119.21719
 -5.01253  20.15152  17.50472 121.83018 120.09462
 -4.96241  22.06224  18.40287 122.93605 121.01707
 -4.91228  23.58845  19.40095 124.11843 121.98955
 -4.86216  24.54629  20.56699 125.34882 123.02047
 -4.81203  24.93374  22.08204 126.59863 124.12734
 -4.76190  24.66394  23.52239 127.83492 125.30641
 -4.71178  24.01336  23.90410 129.03860 126.50461
 -4.66165  23.96310  22.78877 130.23976 127.64690
 -4.61153  24.95192  21.32327 131.49048 128.71574
 -4.56140  26.17514  21.00218 132.80252 129.76848
 -4.51128  26.67681  21.62331 134.13970 130.85236
 -4.46115  26.29452  22.05008 135.45772 131.95762
 -4.41103  25.62380  22.09441 136.74212 133.06511
 -4.36090  25.30577  22.22958 138.01058 134.17938
 -4.31078  25.31187  22.56991 139.27935 135.31070
 -4.26065  25.18797  22.96351 140.54190 136.46175
 -4.21053  24.82946  23.23542 141.78649 137.62644
 -4.16040  24.42449  23.25988 143.01077 138.79234
 -4.11028  23.98613  23.13643 144.21308 139.95206
 -4.06015  23.61918  23.15627 145.39700 141.11278
 -4.01003  23.75390  23.42042 146.58767 142.28674
 -3.95990  24.48359  23.53911 147.81492 143.46664
 -3.90977  25.11037  23.26368 149.07359 144.63274
 -3.85965  25.07852  23.01030 150.33065 145.78614
 -3.80952  24.69967  23.15532 151.56873 146.94681
 -3.75940  24.56610  23.65413 152.80012 148.13248
 -3.70927  25.07007  24.25199 154.05676 149.34812
 -3.65915  26.15249  24.56554 155.36766 150.57947
 -3.60902  27.26435  24.34370 156.73430 151.79971
 -3.55890  28.08472  23.73842 158.14205 152.98960
 -3.50877  28.80245  23.41118 159.58579 154.16310
 -3.45865  29.40938  23.99489 161.05994 155.36585
 -3.40852  29.45894  25.22076 162.53658 156.63005
 -3.35840  28.91885  26.17133 163.98614 157.94189
 -3.30827  28.53754  26.48501 165.41660 159.26946
 -3.25815  29.00281  26.59541 166.87037 160.60256
 -3.20802  30.18748  27.14674 168.38353 161.96330
 -3.15789  31.57946  28.69333 169.96646 163.40157
 -3.10777  33.16455  30.89567 171.62884 164.95022
 -3.05764  35.17054  32.57205 173.39178 166.58290
 -3.00752  37.37958  33.29021 175.26544 168.25159
 -2.95739  39.34618  33.79606 177.23768 169.94563
 -2.90727  40.79203  34.80008 179.28239 171.68999
 -2.85714  41.98394  35.96781 181.38685 173.49289
 -2.80702  43.95259  36.48102 183.58999 175.32151
 -2.75689  46.97658  36.44708 185.94470 177.14843
 -2.70677  49.47367  36.64090 188.42459 178.98507
 -2.65664  49.94689  37.04812 190.92819 180.84212
 -2.60652  48.71766  37.08406 193.37018 182.70097
 -2.55639  47.13874  36.90743 195.73302 184.55096
 -2.50627  46.30914  37.09023 198.05428 186.41012
 -2.45614  46.40647  37.66607 200.38042 188.29815
 -2.40602  46.69343  38.38821 202.72095 190.22237
 -2.35589  46.38146  38.68286 205.04583 192.16136
 -2.30576  45.41705  37.75677 207.32237 194.05393
 -2.25564  44.16079  35.61591 209.53595 195.83919
 -2.20551  42.94584  33.07742 211.68862 197.49720
 -2.15539  42.07711  30.99406 213.79775 199.05079
 -2.10526  41.48940  29.86156 215.87742 200.54761
 -2.05514  40.82305  29.58297 217.92369 202.03046
 -2.00501  40.25343  29.40906 219.94140 203.50460
 -1.95489  40.17055  28.63934 221.95496 204.94016
 -1.90476  40.05087  27.28598 223.96253 206.30788
 -1.85464  39.03661  25.58154 225.91925 207.59016
 -1.80451  37.25611  23.76936 227.78672 208.78161
 -1.75439  35.34439  22.31415 229.55837 209.90011
 -1.70426  33.42447  21.53517 231.23378 210.97957
 -1.65414  31.39013  21.48729 232.80722 212.05662
 -1.60401  29.41966  21.91560 234.28189 213.15515
 -1.55388  27.89442  22.28207 235.68011 214.27205
 -1.50376  27.11331  22.43184 237.03917 215.39645
 -1.45363  27.15078  22.74160 238.40011 216.53638
 -1.40351  27.78087  23.23945 239.79264 217.70126
 -1.35338  28.62407  23.34923 241.22743 218.87165
 -1.30326  29.41077  22.68667 242.70165 220.00883
 -1.25313  29.82312  21.58181 244.19655 221.09062
 -1.20301  29.48519  20.75104 245.67450 222.13077
 -1.15288  28.33292  20.43107 247.09470 223.15489
 -1.10276  26.72322  20.12754 248.43421 224.16379
 -1.05263  25.24351  19.65524 249.69955 225.14901
 -1.00251  24.17561  19.65486 250.91136 226.13422
 -0.95238  23.30291  20.41714 252.07942 227.15763
 -0.90226  22.53989  21.24564 253.20924 228.22258
 -0.85213  22.02710  21.31833 254.31336 229.29117
 -0.80201  21.72473  20.66572 255.40231 230.32704
 -0.75188  21.41506  20.18820 256.47575 231.33898
 -0.70175  20.78350  20.27092 257.51753 232.35507
 -0.65163  19.75263  20.25303 258.50764 233.37026
 -0.60150  18.77671  19.62934 259.44883 234.35418
 -0.55138  18.30086  18.68878 260.36616 235.29097
 -0.50125  18.22130  18.17358 261.27951 236.20192
 -0.45113  18.11564  18.50776 262.18756 237.12963
 -0.40100  17.82643  19.26170 263.08112 238.09513
 -0.35088  17.50112  19.69588 263.95837 239.08239
 -0.30075  17.22397  19.62012 264.82172 240.06586
 -0.25063  16.97838  19.31611 265.67277 241.03408
 -0.20050  16.69809  18.79097 266.50977 241.97598
 -0.15038  16.28439  17.80719 267.32603 242.86858
 -0.10025  15.67831  16.83066 268.11191 243.71222
 -0.05013  14.93245  16.73238 268.86040 244.55093
  0.00000  14.17019  17.42279 269.57069 245.42426
  0.05013  13.58552  18.04278 270.25167 246.32866
  0.10025  13.32745  18.19728 270.91971 247.24080
  0.15038  13.27434  18.20093 271.58509 248.15313
  0.20050  13.17222  18.55109 272.24535 249.08301
  0.25063  13.05946  19.24635 272.89996 250.04774
  0.30075  13.23558  19.74056 273.56340 251.03724
  0.35088  13.70982  19.89866 274.25061 252.03466
  0.40100  14.26038  20.12853 274.96541 253.04361
  0.45113  14.77001  20.56639 275.70577 254.07451
  0.50125  15.08113  20.99410 276.46171 255.12685
  0.55138  15.13266  21.04531 277.22024 256.18175
  0.60150  15.29372  20.62356 277.98684 257.21551
  0.65163  15.94028  20.41152 278.78585 258.23864
  0.70175  16.76626  20.75741 279.62627 259.27912
  0.75188  17.10660  20.81330 280.48374 260.32239
  0.80201  16.75075  19.99948 281.32338 261.32487
  0.85213  15.93728  19.10720 282.12224 262.28262
  0.90226  15.03182  19.01719 282.87571 263.23587
  0.95238  14.37486  19.36722 283.59626 264.20665
  1.00251  14.03498  19.48490 284.29977 265.18334
  1.05263  13.82474  19.37085 284.99274 266.15431
  1.10276  13.58133  19.14456 285.67351 267.11394
  1.15288  13.30053  18.77521 286.34020 268.05505
  1.20301  13.19899  18.45502 287.00180 268.98011
  1.25313  13.47850  18.46893 287.67742 269.90588
  1.30326  13.80112  18.83606 288.36920 270.85004
  1.35338  13.58551  19.34667 289.05018 271.81980
  1.40351  12.91186  19.76160 289.69739 272.81035
  1.45363  12.23983  20.12883 290.31092 273.81932
  1.50376  11.67516  20.72083 290.89614 274.85795
  1.55388  11.32813  21.47655 291.46396 275.93447
  1.60401  11.47223  22.31503 292.03901 277.05302
  1.65414  12.11927  23.58775 292.64649 278.23536
  1.70426  12.84541  25.06986 293.29037 279.49200
  1.75439  13.01529  25.70171 293.94277 280.78031
  1.80451  12.59040  25.11052 294.57387 282.03898
  1.85464  12.29485  24.23150 295.19015 283.25359
  1.90476  12.51454  24.01191 295.81744 284.45719
  1.95489  12.79649  24.11572 296.45887 285.66600
  2.00501  12.63317  23.81208 297.09211 286.85959
  2.05514  11.99798  23.24675 297.69352 288.02484
  2.10526  11.22020  22.73827 298.25593 289.16460
  2.15539  10.66754  22.21831 298.79065 290.27830
  2.20551  10.39237  21.76077 299.31157 291.36907
  2.25564  10.35173  21.44160 299.83045 292.44384
  2.30576  10.66615  20.96398 300.36510 293.49466
  2.35589  11.25359  20.03395 300.92919 294.49887
  2.40602  11.78838  18.76265 301.52008 295.43935
  2.45614  12.06707  17.54917 302.12495 296.31901
  2.50627  11.95371  16.75073 302.72413 297.15865
  2.55639  11.39490  16.38128 303.29530 297.97976
  2.60652  10.62712  16.21448 303.82799 298.79252
  2.65664  10.01253  16.11684 304.32987 299.60038
  2.70677   9.78307  16.06365 304.82025 300.40558
  2.75689   9.84796  15.85138 305.31388 301.20013
  2.80702   9.90797  15.20213 305.81052 301.96214
  2.85714   9.81381  14.17021 306.30244 302.67243
  2.90727   9.57839  13.00313 306.78256 303.32422
  2.95739   9.26771  11.94403 307.24711 303.92291
  3.00752   9.18175  11.23472 307.70735 304.48606
  3.05764   9.49967  11.03068 308.18352 305.03897
  3.10777   9.71557  11.20992 308.67052 305.60088
  3.15789   9.38585  11.34450 309.14099 306.16952
  3.20802   8.91650  11.01937 309.58793 306.72187
  3.25815   8.74021  10.15362 310.02604 307.23082
  3.30827   8.66991   9.12559 310.46062 307.68825
  3.35840   8.41920   8.52106 310.88263 308.11537
  3.40852   7.93874   8.50974 311.28057 308.54192
  3.45865   7.41673   8.72234 311.65233 308.97913
  3.50877   7.11562   8.74420 312.00900 309.41744
  3.55890   6.97429   8.48877 312.35859 309.84294
  3.60902   6.72904   8.20701 312.69589 310.25432
  3.65915   6.34071   7.99530 313.01372 310.65509
  3.70927   5.96152   7.72473 313.31254 311.04229
  3.75940   5.75132   7.41258 313.60083 311.41385
  3.80952   5.81255   7.11130 313.89218 311.77030
  3.85965   6.08833   6.77657 314.19736 312.10998
  3.90977   6.46164   6.40476 314.52125 312.43102
  3.95990   6.96982   6.07837 314.87062 312.73570
  4.01003   7.45102   5.88717 315.24410 313.03080
  4.06015   7.51854   5.89847 315.62097 313.32646
  4.11028   7.26558   6.08162 315.98516 313.63131
  4.16040   7.03282   6.40234 316.33768 313.95222
  4.21053   6.71684   6.88694 316.67437 314.29743
  4.26065   6.23213   7.47315 316.98676 314.67203
  4.31078   6.13806   8.09298 317.29443 315.07769
  4.36090   6.89965   8.70531 317.64027 315.51405
  4.41103   7.91568   9.16921 318.03705 315.97366
  4.46115   8.28996   9.32836 318.45259 316.44124
  4.51128   8.11252   9.20807 318.85923 316.90280
  4.56140   8.00759   8.94760 319.26061 317.35130
  4.61153   8.16384   8.60319 319.66983 317.78254
  4.66165   8.41136   8.14812 320.09145 318.19097
  4.71178   8.67015   7.63008 320.52604 318.57343
  4.76190   9.01943   7.35321 320.97815 318.94201
  4.81203   9.22941   7.75259 321.44077 319.33061
  4.86216   8.84043   8.70986 321.88390 319.76720
  4.91228   7.93361   9.37126 322.28158 320.23693
  4.96241   6.80208   9.21029 322.62253 320.69860
  5.01253   5.33678   8.65228 322.89004 321.13230
  5.06266   3.74198   8.21681 323.07761 321.54417
  5.11278   2.74018   7.80090 323.21496 321.93519
  5.16291   2.52417   7.04196 323.34149 322.28817
  5.21303   2.47492   5.85295 323.46554 322.58155
  5.26316   2.01629   4.45467 323.56661 322.80485
  5.31328   1.26802   3.32774 323.63017 322.97165
  5.36341   0.71090   2.91514 323.66580 323.11777
  5.41353   0.53058   3.05147 323.69240 323.27073
  5.46366   0.61604   3.04357 323.72328 323.42329
  5.51378   0.86474   2.41329 323.76662 323.54425
  5.56391   1.14265   1.43311 323.82390 323.61609
  5.61404   1.23549   0.75521 323.88583 323.65394
  5.66416   1.04832   0.71922 323.93838 323.68999
  5.71429   0.69358   1.14854 323.97314 323.74757
  5.76441   0.35430   1.49760 323.99090 323.82263
  5.81454   0.13595   1.34230 323.99772 323.88992
  5.86466   0.03751   0.84848 323.99960 323.93245
  5.91479   0.00710   0.44388 323.99995 323.95470
  5.96491   0.00089   0.26598 324.00000 323.96803
  6.01504   0.00007   0.21060 324.00000 323.97859
  6.06516   0.00000   0.18053 324.00000 323.98763
  6.11529   0.00000   0.13526 324.00000 323.99441
  6.16541   0.00000   0.07539 324.00000 323.99819
  6.21554   0.00000   0.02821 324.00000 323.99961
  6.26566   0.00000   0.00673 324.00000 323.99994
  6.31579   0.00000   0.00100 324.00000 324.00000
  6.36591   0.00000   0.00009 324.00000 324.00000
  6.41604   0.00000   0.00001 324.00000 324.00000
  6.46617   0.00000   0.00000 324.00000 324.00000
  6.51629   0.00000   0.00000 324.00000 324.00000
  6.56642   0.00000   0.00000 324.00000 324.00000
  6.61654   0.00000   0.00000 324.00000 324.00000
  6.66667   0.00000  -0.00000 324.00000 324.00000
  6.71679   0.00000   0.00000 324.00000 324.00000
  6.76692   0.00000   0.00000 324.00000 324.00000
  6.81704   0.00000   0.00000 324.00000 324.00000
  6.86717   0.00000   0.00000 324.00000 324.00000
  6.91729   0.00000   0.00000 324.00000 324.00000
  6.96742   0.00000   0.00000 324.00000 324.00000
  7.01754   0.00000   0.00000 324.00000 324.00000
  7.06767   0.00000   0.00000 324.00000 324.00000
  7.11779   0.00000   0.00000 324.00000 324.00000
  7.16792   0.00000   0.00000 324.00000 324.00000
  7.21805   0.00000   0.00000 324.00000 324.00000
  7.26817   0.00000   0.00000 324.00000 324.00000
  7.31830   0.00000   0.00000 324.00000 324.00000
  7.36842   0.00000   0.00000 324.00000 324.00000
  7.41855   0.00000   0.00000 324.00000 324.00000
  7.46867   0.00000   0.00000 324.00000 324.00000
  7.51880   0.00000   0.00000 324.00000 324.00000
  7.56892   0.00000   0.00000 324.00000 324.00000
  7.61905   0.00000   0.00000 324.00000 324.00000
  7.66917   0.00000   0.00000 324.00000 324.00000
  7.71930   0.00000   0.00000 324.00000 324.00000
  7.76942   0.00000   0.00000 324.00000 324.00000
  7.81955   0.00000   0.00000 324.00000 324.00000
  7.86967   0.00000   0.00000 324.00000 324.00000
  7.91980   0.00000   0.00000 324.00000 324.00000
  7.96992   0.00000   0.00000 324.00000 324.00000
  8.02005   0.00000   0.00000 324.00000 324.00000
  8.07018   0.00000   0.00000 324.00000 324.00000
  8.12030   0.00000   0.00000 324.00000 324.00000
  8.17043   0.00000   0.00000 324.00000 324.00000
  8.22055   0.00000   0.00000 324.00000 324.00000
  8.27068   0.00000   0.00000 324.00000 324.00000
  8.32080   0.00000   0.00000 324.00000 324.00000
  8.37093   0.00000   0.00000 324.00000 324.00000
  8.42105   0.00000   0.00000 324.00000 324.00000
  8.47118   0.00000   0.00000 324.00000 324.00000
  8.52130   0.00000   0.00000 324.00000 324.00000
  8.57143   0.00000   0.00000 324.00000 324.00000
  8.62155   0.00000   0.00000 324.00000 324.00000
  8.67168   0.00000   0.00000 324.00000 324.00000
  8.72180   0.00000   0.00000 324.00000 324.00000
  8.77193   0.00000   0.00000 324.00000 324.00000
  8.82206   0.00000   0.00000 324.00000 324.00000
  8.87218   0.00000   0.00000 324.00000 324.00000
  8.92231   0.00000   0.00000 324.00000 324.00000
  8.97243   0.00000   0.00000 324.00000 324.00000
  9.02256   0.00000   0.00000 324.00000 324.00000
  9.07268   0.00000   0.00000 324.00000 324.00000
  9.12281   0.00000   0.00000 324.00000 324.00000
  9.17293   0.00000   0.00000 324.00000 324.00000
  9.22306   0.00000   0.00000 324.00000 324.00000
  9.27318   0.00000   0.00000 324.00000 324.00000
  9.32331   0.00000   0.00000 324.00000 324.00000
  9.37343   0.00000   0.00000 324.00000 324.00000
  9.42356   0.00000   0.00000 324.00000 324.00000
  9.47368   0.00000   0.00000 324.00000 324.00000
  9.52381   0.00000   0.00000 324.00000 324.00000
  9.57393   0.00000   0.00000 324.00000 324.00000
  9.62406   0.00000   0.00000 324.00000 324.00000
  9.67419   0.00000   0.00000 324.00000 324.00000
  9.72431   0.00000   0.00000 324.00000 324.00000
  9.77444   0.00000   0.00000 324.00000 324.00000
  9.82456   0.00000   0.00000 324.00000 324.00000
  9.87469   0.00000   0.00000 324.00000 324.00000
  9.92481   0.00000   0.00000 324.00000 324.00000
  9.97494   0.00000   0.00000 324.00000 324.00000
 10.02506   0.00000   0.00000 324.00000 324.00000
     10.02506266     -10.02506266   401       1.73323984       1.00000000; Z= 25; 4s 3p_y 3p_z 3p_x 3d_xy 3d_yz 3d_z^2 3d_xz 3d_x^2-y^2 
-10.02506   0.00000   0.00000   0.00000   0.00000   0.00000   0.00000   0.00000   0.00000   0.00000   0.00000   0.00000   0.00000   0.00000   0.00000   0.00000   0.00000   0.00000   0.00000
 -9.97494   0.00000   0.00000   0.00000   0.00000   0.00000   0.00000   0.00000   0.00000   0.00000   0.00000   0.00000   0.00000   0.00000   0.00000   0.00000   0.00000   0.00000   0.00000
 -9.92481   0.00000   0.00000   0.00000   0.00000   0.00000   0.00000   0.00000   0.00000   0.00000   0.00000   0.00000   0.00000   0.00000   0.00000   0.00000   0.00000   0.00000   0.00000
 -9.87469   0.00000   0.00000   0.00000   0.00000   0.00000   0.00000   0.00000   0.00000   0.00000   0.00000   0.00000   0.00000   0.00000   0.00000   0.00000   0.00000   0.00000   0.00000
 -9.82456   0.00000   0.00000   0.00000   0.00000   0.00000   0.00000   0.00000   0.00000   0.00000   0.00000   0.00000   0.00000   0.00000   0.00000   0.00000   0.00000   0.00000   0.00000
 -9.77444   0.00000   0.00000   0.00000   0.00000   0.00000   0.00000   0.00000   0.00000   0.00000   0.00000   0.00000   0.00000   0.00000   0.00000   0.00000   0.00000   0.00000   0.00000
 -9.72431   0.00000   0.00000   0.00000   0.00000   0.00000   0.00000   0.00000   0.00000   0.00000   0.00000   0.00000   0.00000   0.00000   0.00000   0.00000   0.00000   0.00000   0.00000
 -9.67419   0.00000   0.00000   0.00000   0.00000   0.00000   0.00000   0.00000   0.00000   0.00000   0.00000   0.00000   0.00000   0.00000   0.00000   0.00000   0.00000   0.00000   0.00000
 -9.62406   0.00000   0.00000   0.00000   0.00000   0.00000   0.00000   0.00000   0.00000   0.00000   0.00000   0.00000   0.00000   0.00000   0.00000   0.00000   0.00000   0.00000   0.00000
 -9.57393   0.00000   0.00000   0.00000   0.00000   0.00000   0.00000   0.00000   0.00000   0.00000   0.00000   0.00000   0.00000   0.00000   0.00000   0.00000   0.00000   0.00000   0.00000
 -9.52381   0.00000   0.00000   0.00000   0.00000   0.00000   0.00000   0.00000   0.00000   0.00000   0.00000   0.00000   0.00000   0.00000   0.00000   0.00000   0.00000   0.00000   0.00000
 -9.47368   0.00000   0.00000   0.00000   0.00000   0.00000   0.00000   0.00000   0.00000   0.00000   0.00000   0.00000   0.00000   0.00000   0.00000   0.00000   0.00000   0.00000   0.00000
 -9.42356   0.00000   0.00000   0.00000   0.00000   0.00000   0.00000   0.00000   0.00000   0.00000   0.00000   0.00000   0.00000   0.00000   0.00000   0.00000   0.00000   0.00000   0.00000
 -9.37343   0.00000   0.00000   0.00000   0.00000   0.00000   0.00000   0.00000   0.00000   0.00000   0.00000   0.00000   0.00000   0.00000   0.00000   0.00000   0.00000   0.00000   0.00000
 -9.32331   0.00000   0.00000   0.00000   0.00000   0.00000   0.00000   0.00000   0.00000   0.00000   0.00000   0.00000   0.00000   0.00000   0.00000   0.00000   0.00000   0.00000   0.00000
 -9.27318   0.00000   0.00000   0.00000   0.00000   0.00000   0.00000   0.00000   0.00000   0.00000   0.00000   0.00000   0.00000   0.00000   0.00000   0.00000   0.00000   0.00000   0.00000
 -9.22306   0.00000   0.00000   0.00000   0.00000   0.00000   0.00000   0.00000   0.00000   0.00000   0.00000   0.00000   0.00000   0.00000   0.00000   0.00000   0.00000   0.00000   0.00000
 -9.17293   0.00000   0.00000   0.00000   0.00000   0.00000   0.00000   0.00000   0.00000   0.00000   0.00000   0.00000   0.00000   0.00000   0.00000   0.00000   0.00000   0.00000   0.00000
 -9.12281   0.00000   0.00000   0.00000   0.00000   0.00000   0.00000   0.00000   0.00000   0.00000   0.00000   0.00000   0.00000   0.00000   0.00000   0.00000   0.00000   0.00000   0.00000
 -9.07268   0.00000   0.00000   0.00000   0.00000   0.00000   0.00000   0.00000   0.00000   0.00000   0.00000   0.00000   0.00000   0.00000   0.00000   0.00000   0.00000   0.00000   0.00000
 -9.02256   0.00000   0.00000   0.00000   0.00000   0.00000   0.00000   0.00000   0.00000   0.00000   0.00000   0.00000   0.00000   0.00000   0.00000   0.00000   0.00000   0.00000   0.00000
 -8.97243   0.00000   0.00000   0.00000   0.00000   0.00000   0.00000   0.00000   0.00000   0.00000   0.00000   0.00000   0.00000   0.00000   0.00000   0.00000   0.00000   0.00000   0.00000
 -8.92231   0.00000   0.00000   0.00000   0.00000   0.00000   0.00000   0.00000   0.00000   0.00000   0.00000   0.00000   0.00000   0.00000   0.00000   0.00000   0.00000   0.00000   0.00000
 -8.87218   0.00000   0.00000   0.00000   0.00000   0.00000   0.00000   0.00000   0.00000   0.00000   0.00000   0.00000   0.00000   0.00000   0.00000   0.00000   0.00000   0.00000   0.00000
 -8.82206   0.00000   0.00000   0.00000   0.00000   0.00000   0.00000   0.00000   0.00000   0.00000   0.00000   0.00000   0.00000   0.00000   0.00000   0.00000   0.00000   0.00000   0.00000
 -8.77193   0.00000   0.00000   0.00000   0.00000   0.00000   0.00000   0.00000   0.00000   0.00000   0.00000   0.00000   0.00000   0.00000   0.00000   0.00000   0.00000   0.00000   0.00000
 -8.72180   0.00000   0.00000   0.00000   0.00000   0.00000   0.00000   0.00000   0.00000   0.00000   0.00000   0.00000   0.00000   0.00000   0.00000   0.00000   0.00000   0.00000   0.00000
 -8.67168   0.00000   0.00000   0.00000   0.00000   0.00000   0.00000   0.00000   0.00000   0.00000   0.00000   0.00000   0.00000   0.00000   0.00000   0.00000   0.00000   0.00000   0.00000
 -8.62155   0.00000   0.00000   0.00000   0.00000   0.00000   0.00000   0.00000   0.00000   0.00000   0.00000   0.00000   0.00000   0.00000   0.00000   0.00000   0.00000   0.00000   0.00000
 -8.57143   0.00000   0.00000   0.00000   0.00000   0.00000   0.00000   0.00000   0.00000   0.00000   0.00000   0.00000   0.00000   0.00000   0.00000   0.00000   0.00000   0.00000   0.00000
 -8.52130   0.00000   0.00000   0.00000   0.00000   0.00000   0.00000   0.00000   0.00000   0.00000   0.00000   0.00000   0.00000   0.00000   0.00000   0.00000   0.00000   0.00000   0.00000
 -8.47118   0.00000   0.00000   0.00000   0.00000   0.00000   0.00000   0.00000   0.00000   0.00000   0.00000   0.00000   0.00000   0.00000   0.00000   0.00000   0.00000   0.00000   0.00000
 -8.42105   0.00000   0.00000   0.00000   0.00000   0.00000   0.00000   0.00000   0.00000   0.00000   0.00000   0.00000   0.00000   0.00000   0.00000   0.00000   0.00000   0.00000   0.00000
 -8.37093   0.00000   0.00000   0.00000   0.00000   0.00000   0.00000   0.00000   0.00000   0.00000   0.00000   0.00000   0.00000   0.00000   0.00000   0.00000   0.00000   0.00000   0.00000
 -8.32080   0.00000   0.00000   0.00000   0.00000   0.00000   0.00000   0.00000   0.00000   0.00000   0.00000   0.00000   0.00000   0.00000   0.00000   0.00000   0.00000   0.00000   0.00000
 -8.27068   0.00000   0.00000   0.00000   0.00000   0.00000   0.00000   0.00000   0.00000   0.00000   0.00000   0.00000   0.00000   0.00000   0.00000   0.00000   0.00000   0.00000   0.00000
 -8.22055   0.00000   0.00000   0.00000   0.00000  -0.00000   0.00000   0.00000   0.00000   0.00000   0.00000  -0.00000   0.00000  -0.00000   0.00000  -0.00000   0.00000   0.00000   0.00000
 -8.17043   0.00000   0.00000   0.00000   0.00000  -0.00000   0.00000   0.00000   0.00000   0.00000   0.00000   0.00000   0.00000   0.00000   0.00000   0.00000   0.00000   0.00000   0.00000
 -8.12030   0.00000   0.00000  -0.00000   0.00000   0.00000   0.00000  -0.00000  -0.00000   0.00000   0.00000   0.00000   0.00000   0.00000  -0.00000   0.00000  -0.00000   0.00000   0.00000
 -8.07018   0.00000   0.00000  -0.00000   0.00000  -0.00000  -0.00000   0.00000   0.00000   0.00000   0.00000   0.00000   0.00000   0.00000   0.00000   0.00000   0.00000   0.00000   0.00000
 -8.02005   0.00000   0.00000  -0.00000  -0.00000  -0.00000  -0.00000  -0.00000  -0.00000   0.00000   0.00000   0.00000   0.00000   0.00000   0.00000   0.00000   0.00000   0.00000   0.00000
 -7.96992   0.00000   0.00000  -0.00000  -0.00000  -0.00000  -0.00000  -0.00000  -0.00000   0.00000   0.00000   0.00000   0.00000   0.00000   0.00000   0.00000   0.00000   0.00000   0.00000
 -7.91980   0.00000   0.00000  -0.00000  -0.00000  -0.00000  -0.00000  -0.00000  -0.00000   0.00000   0.00000   0.00000   0.00000   0.00000   0.00000   0.00000   0.00000   0.00000   0.00000
 -7.86967   0.00001   0.00000  -0.00000  -0.00000  -0.00000  -0.00000  -0.00000  -0.00000   0.00000   0.00000   0.00000   0.00000   0.00000   0.00000   0.00000   0.00000   0.00000   0.00000
 -7.81955   0.00007   0.00000  -0.00000  -0.00000  -0.00000  -0.00000  -0.00000  -0.00000   0.00000   0.00000   0.00000   0.00000   0.00000   0.00000   0.00000   0.00000   0.00000   0.00000
 -7.76942   0.00044   0.00000  -0.00000  -0.00000  -0.00000  -0.00000  -0.00000  -0.00000   0.00000   0.00000   0.00000   0.00000   0.00000   0.00000   0.00000   0.00000   0.00000   0.00000
 -7.71930   0.00188   0.00004  -0.00000  -0.00000  -0.00000  -0.00000  -0.00000  -0.00000   0.00001   0.00000   0.00000   0.00000   0.00000   0.00000   0.00000   0.00000   0.00000   0.00000
 -7.66917   0.00562   0.00028  -0.00000  -0.00000  -0.00001  -0.00000  -0.00000  -0.00000   0.00002   0.00000   0.00000   0.00000   0.00000   0.00000   0.00001   0.00000   0.00000   0.00000
 -7.61905   0.01166   0.00125  -0.00000  -0.00000  -0.00002  -0.00000  -0.00000  -0.00000   0.00003   0.00000   0.00001   0.00000   0.00000   0.00000   0.00001   0.00000   0.00000   0.00000
 -7.56892   0.01683   0.00392  -0.00000  -0.00000  -0.00003  -0.00000  -0.00000  -0.00000   0.00005   0.00000   0.00002   0.00000   0.00000   0.00000   0.00002   0.00000   0.00000   0.00000