ESCALE ; pCOHP file generated by LOBSTER. Energy is shifted such that the Fermi level lies at 0 eV.
        10          2        401  -8.20064e+00   1.18495e+01   1.82443e+00 
Average
No.1:N38->N37(1.3168918492328194)
No.2:Mn7->N37(1.9701296854223949)
No.3:Mn8->N37(3.1465133196495199)
No.4:Mo25->N37(2.0777282274018258)
No.5:Mo26->N37(2.2154981922528529)
No.6:Mn7->N38(2.1030380265021837)
No.7:Mn8->N38(1.9706570972080839)
No.8:Mo25->N38(3.2326535603800135)
No.9:Mo26->N38(2.1014045386825382)
-10.02506   0.00000  -0.99737   0.00000  -5.01231   0.00000  -0.49255   0.00000  -0.00792   0.00000  -1.00478   0.00000  -0.58066   0.00000  -0.33958   0.00000  -0.69015   0.00000  -0.00922   0.00000  -0.83914   0.00000  -0.99944   0.00000  -5.05053   0.00000  -0.49292   0.00000  -0.00788   0.00000  -1.01967   0.00000  -0.58537   0.00000  -0.33725   0.00000  -0.65915   0.00000  -0.00602   0.00000  -0.83613
 -9.97494   0.00000  -0.99737   0.00000  -5.01231   0.00000  -0.49255   0.00000  -0.00792   0.00000  -1.00478   0.00000  -0.58066   0.00000  -0.33958   0.00000  -0.69015   0.00000  -0.00922   0.00000  -0.83914   0.00000  -0.99944   0.00000  -5.05053   0.00000  -0.49292   0.00000  -0.00788   0.00000  -1.01967   0.00000  -0.58537   0.00000  -0.33725   0.00000  -0.65915   0.00000  -0.00602   0.00000  -0.83613
 -9.92481   0.00000  -0.99737   0.00000  -5.01231   0.00000  -0.49255   0.00000  -0.00792   0.00000  -1.00478   0.00000  -0.58066   0.00000  -0.33958   0.00000  -0.69015   0.00000  -0.00922   0.00000  -0.83914   0.00000  -0.99944   0.00000  -5.05053   0.00000  -0.49292   0.00000  -0.00788   0.00000  -1.01967   0.00000  -0.58537   0.00000  -0.33725   0.00000  -0.65915   0.00000  -0.00602   0.00000  -0.83613
 -9.87469   0.00000  -0.99737   0.00000  -5.01231   0.00000  -0.49255   0.00000  -0.00792   0.00000  -1.00478   0.00000  -0.58066   0.00000  -0.33958   0.00000  -0.69015   0.00000  -0.00922   0.00000  -0.83914   0.00000  -0.99944   0.00000  -5.05053   0.00000  -0.49292   0.00000  -0.00788   0.00000  -1.01967   0.00000  -0.58537   0.00000  -0.33725   0.00000  -0.65915   0.00000  -0.00602   0.00000  -0.83613
 -9.82456   0.00000  -0.99737   0.00000  -5.01231   0.00000  -0.49255   0.00000  -0.00792   0.00000  -1.00478   0.00000  -0.58066   0.00000  -0.33958   0.00000  -0.69015   0.00000  -0.00922   0.00000  -0.83914   0.00000  -0.99944   0.00000  -5.05053   0.00000  -0.49292   0.00000  -0.00788   0.00000  -1.01967   0.00000  -0.58537   0.00000  -0.33725   0.00000  -0.65915   0.00000  -0.00602   0.00000  -0.83613
 -9.77444   0.00000  -0.99737   0.00000  -5.01231   0.00000  -0.49255   0.00000  -0.00792   0.00000  -1.00478   0.00000  -0.58066   0.00000  -0.33958   0.00000  -0.69015   0.00000  -0.00922   0.00000  -0.83914   0.00000  -0.99944   0.00000  -5.05053   0.00000  -0.49292   0.00000  -0.00788   0.00000  -1.01967   0.00000  -0.58537   0.00000  -0.33725   0.00000  -0.65915   0.00000  -0.00602   0.00000  -0.83613
 -9.72431   0.00000  -0.99737   0.00000  -5.01231   0.00000  -0.49255   0.00000  -0.00792   0.00000  -1.00478   0.00000  -0.58066   0.00000  -0.33958   0.00000  -0.69015   0.00000  -0.00922   0.00000  -0.83914   0.00000  -0.99944   0.00000  -5.05053   0.00000  -0.49292   0.00000  -0.00788   0.00000  -1.01967   0.00000  -0.58537   0.00000  -0.33725   0.00000  -0.65915   0.00000  -0.00602   0.00000  -0.83613
 -9.67419   0.00000  -0.99737   0.00000  -5.01231   0.00000  -0.49255   0.00000  -0.00792   0.00000  -1.00478   0.00000  -0.58066   0.00000  -0.33958   0.00000  -0.69015   0.00000  -0.00922   0.00000  -0.83914   0.00000  -0.99944   0.00000  -5.05053   0.00000  -0.49292   0.00000  -0.00788   0.00000  -1.01967   0.00000  -0.58537   0.00000  -0.33725   0.00000  -0.65915   0.00000  -0.00602   0.00000  -0.83613
 -9.62406   0.00000  -0.99737   0.00000  -5.01231   0.00000  -0.49255   0.00000  -0.00792   0.00000  -1.00478   0.00000  -0.58066   0.00000  -0.33958   0.00000  -0.69015   0.00000  -0.00922   0.00000  -0.83914   0.00000  -0.99944   0.00000  -5.05053   0.00000  -0.49292   0.00000  -0.00788   0.00000  -1.01967   0.00000  -0.58537   0.00000  -0.33725   0.00000  -0.65915   0.00000  -0.00602   0.00000  -0.83613
 -9.57393   0.00000  -0.99737   0.00000  -5.01231   0.00000  -0.49255   0.00000  -0.00792   0.00000  -1.00478   0.00000  -0.58066   0.00000  -0.33958   0.00000  -0.69015   0.00000  -0.00922   0.00000  -0.83914   0.00000  -0.99944   0.00000  -5.05053   0.00000  -0.49292   0.00000  -0.00788   0.00000  -1.01967   0.00000  -0.58537   0.00000  -0.33725   0.00000  -0.65915   0.00000  -0.00602   0.00000  -0.83613
 -9.52381   0.00000  -0.99737   0.00000  -5.01231   0.00000  -0.49255   0.00000  -0.00792   0.00000  -1.00478   0.00000  -0.58066   0.00000  -0.33958   0.00000  -0.69015   0.00000  -0.00922   0.00000  -0.83914   0.00000  -0.99944   0.00000  -5.05053   0.00000  -0.49292   0.00000  -0.00788   0.00000  -1.01967   0.00000  -0.58537   0.00000  -0.33725   0.00000  -0.65915   0.00000  -0.00602   0.00000  -0.83613
 -9.47368   0.00000  -0.99737   0.00000  -5.01231   0.00000  -0.49255   0.00000  -0.00792   0.00000  -1.00478   0.00000  -0.58066   0.00000  -0.33958   0.00000  -0.69015   0.00000  -0.00922   0.00000  -0.83914   0.00000  -0.99944   0.00000  -5.05053   0.00000  -0.49292   0.00000  -0.00788   0.00000  -1.01967   0.00000  -0.58537   0.00000  -0.33725   0.00000  -0.65915   0.00000  -0.00602   0.00000  -0.83613
 -9.42356   0.00000  -0.99737   0.00000  -5.01231   0.00000  -0.49255   0.00000  -0.00792   0.00000  -1.00478   0.00000  -0.58066   0.00000  -0.33958   0.00000  -0.69015   0.00000  -0.00922   0.00000  -0.83914   0.00000  -0.99944   0.00000  -5.05053   0.00000  -0.49292   0.00000  -0.00788   0.00000  -1.01967   0.00000  -0.58537   0.00000  -0.33725   0.00000  -0.65915   0.00000  -0.00602   0.00000  -0.83613
 -9.37343   0.00000  -0.99737   0.00000  -5.01231   0.00000  -0.49255   0.00000  -0.00792   0.00000  -1.00478   0.00000  -0.58066   0.00000  -0.33958   0.00000  -0.69015   0.00000  -0.00922   0.00000  -0.83914   0.00000  -0.99944   0.00000  -5.05053   0.00000  -0.49292   0.00000  -0.00788   0.00000  -1.01967   0.00000  -0.58537   0.00000  -0.33725   0.00000  -0.65915   0.00000  -0.00602   0.00000  -0.83613
 -9.32331   0.00000  -0.99737   0.00000  -5.01231   0.00000  -0.49255   0.00000  -0.00792   0.00000  -1.00478   0.00000  -0.58066   0.00000  -0.33958   0.00000  -0.69015   0.00000  -0.00922   0.00000  -0.83914   0.00000  -0.99944   0.00000  -5.05053   0.00000  -0.49292   0.00000  -0.00788   0.00000  -1.01967   0.00000  -0.58537   0.00000  -0.33725   0.00000  -0.65915   0.00000  -0.00602   0.00000  -0.83613
 -9.27318   0.00000  -0.99737   0.00000  -5.01231   0.00000  -0.49255   0.00000  -0.00792   0.00000  -1.00478   0.00000  -0.58066   0.00000  -0.33958   0.00000  -0.69015   0.00000  -0.00922   0.00000  -0.83914   0.00000  -0.99944   0.00000  -5.05053   0.00000  -0.49292   0.00000  -0.00788   0.00000  -1.01967   0.00000  -0.58537   0.00000  -0.33725   0.00000  -0.65915   0.00000  -0.00602   0.00000  -0.83613
 -9.22306   0.00000  -0.99737   0.00000  -5.01231   0.00000  -0.49255   0.00000  -0.00792   0.00000  -1.00478   0.00000  -0.58066   0.00000  -0.33958   0.00000  -0.69015   0.00000  -0.00922   0.00000  -0.83914   0.00000  -0.99944   0.00000  -5.05053   0.00000  -0.49292   0.00000  -0.00788   0.00000  -1.01967   0.00000  -0.58537   0.00000  -0.33725   0.00000  -0.65915   0.00000  -0.00602   0.00000  -0.83613
 -9.17293   0.00000  -0.99737   0.00000  -5.01231   0.00000  -0.49255   0.00000  -0.00792   0.00000  -1.00478   0.00000  -0.58066   0.00000  -0.33958   0.00000  -0.69015   0.00000  -0.00922   0.00000  -0.83914   0.00000  -0.99944   0.00000  -5.05053   0.00000  -0.49292   0.00000  -0.00788   0.00000  -1.01967   0.00000  -0.58537   0.00000  -0.33725   0.00000  -0.65915   0.00000  -0.00602   0.00000  -0.83613
 -9.12281   0.00000  -0.99737   0.00000  -5.01231   0.00000  -0.49255   0.00000  -0.00792   0.00000  -1.00478   0.00000  -0.58066   0.00000  -0.33958   0.00000  -0.69015   0.00000  -0.00922   0.00000  -0.83914   0.00000  -0.99944   0.00000  -5.05053   0.00000  -0.49292   0.00000  -0.00788   0.00000  -1.01967   0.00000  -0.58537   0.00000  -0.33725   0.00000  -0.65915   0.00000  -0.00602   0.00000  -0.83613
 -9.07268   0.00000  -0.99737   0.00000  -5.01231   0.00000  -0.49255   0.00000  -0.00792   0.00000  -1.00478   0.00000  -0.58066   0.00000  -0.33958   0.00000  -0.69015   0.00000  -0.00922   0.00000  -0.83914   0.00000  -0.99944   0.00000  -5.05053   0.00000  -0.49292   0.00000  -0.00788   0.00000  -1.01967   0.00000  -0.58537   0.00000  -0.33725   0.00000  -0.65915   0.00000  -0.00602   0.00000  -0.83613
 -9.02256   0.00000  -0.99737   0.00000  -5.01231   0.00000  -0.49255   0.00000  -0.00792   0.00000  -1.00478   0.00000  -0.58066   0.00000  -0.33958   0.00000  -0.69015   0.00000  -0.00922   0.00000  -0.83914   0.00000  -0.99944   0.00000  -5.05053   0.00000  -0.49292   0.00000  -0.00788   0.00000  -1.01967   0.00000  -0.58537   0.00000  -0.33725   0.00000  -0.65915   0.00000  -0.00602   0.00000  -0.83613
 -8.97243   0.00000  -0.99737   0.00000  -5.01231   0.00000  -0.49255   0.00000  -0.00792   0.00000  -1.00478   0.00000  -0.58066   0.00000  -0.33958   0.00000  -0.69015   0.00000  -0.00922   0.00000  -0.83914   0.00000  -0.99944   0.00000  -5.05053   0.00000  -0.49292   0.00000  -0.00788   0.00000  -1.01967   0.00000  -0.58537   0.00000  -0.33725   0.00000  -0.65915   0.00000  -0.00602   0.00000  -0.83613
 -8.92231   0.00000  -0.99737   0.00000  -5.01231   0.00000  -0.49255   0.00000  -0.00792   0.00000  -1.00478   0.00000  -0.58066   0.00000  -0.33958   0.00000  -0.69015   0.00000  -0.00922   0.00000  -0.83914   0.00000  -0.99944   0.00000  -5.05053   0.00000  -0.49292   0.00000  -0.00788   0.00000  -1.01967   0.00000  -0.58537   0.00000  -0.33725   0.00000  -0.65915   0.00000  -0.00602   0.00000  -0.83613
 -8.87218   0.00000  -0.99737   0.00000  -5.01231   0.00000  -0.49255   0.00000  -0.00792   0.00000  -1.00478   0.00000  -0.58066   0.00000  -0.33958   0.00000  -0.69015   0.00000  -0.00922   0.00000  -0.83914   0.00000  -0.99944   0.00000  -5.05053   0.00000  -0.49292   0.00000  -0.00788   0.00000  -1.01967   0.00000  -0.58537   0.00000  -0.33725   0.00000  -0.65915   0.00000  -0.00602   0.00000  -0.83613
 -8.82206   0.00000  -0.99737   0.00000  -5.01231   0.00000  -0.49255   0.00000  -0.00792   0.00000  -1.00478   0.00000  -0.58066   0.00000  -0.33958   0.00000  -0.69015   0.00000  -0.00922   0.00000  -0.83914   0.00000  -0.99944   0.00000  -5.05053   0.00000  -0.49292   0.00000  -0.00788   0.00000  -1.01967   0.00000  -0.58537   0.00000  -0.33725   0.00000  -0.65915   0.00000  -0.00602   0.00000  -0.83613
 -8.77193   0.00000  -0.99737   0.00000  -5.01231   0.00000  -0.49255   0.00000  -0.00792   0.00000  -1.00478   0.00000  -0.58066   0.00000  -0.33958   0.00000  -0.69015   0.00000  -0.00922   0.00000  -0.83914   0.00000  -0.99944   0.00000  -5.05053   0.00000  -0.49292   0.00000  -0.00788   0.00000  -1.01967   0.00000  -0.58537   0.00000  -0.33725   0.00000  -0.65915   0.00000  -0.00602   0.00000  -0.83613
 -8.72180   0.00000  -0.99737   0.00000  -5.01231   0.00000  -0.49255   0.00000  -0.00792   0.00000  -1.00478   0.00000  -0.58066   0.00000  -0.33958   0.00000  -0.69015   0.00000  -0.00922   0.00000  -0.83914   0.00000  -0.99944   0.00000  -5.05053   0.00000  -0.49292   0.00000  -0.00788   0.00000  -1.01967   0.00000  -0.58537   0.00000  -0.33725   0.00000  -0.65915   0.00000  -0.00602   0.00000  -0.83613
 -8.67168   0.00000  -0.99737   0.00000  -5.01231   0.00000  -0.49255   0.00000  -0.00792   0.00000  -1.00478   0.00000  -0.58066   0.00000  -0.33958   0.00000  -0.69015   0.00000  -0.00922   0.00000  -0.83914   0.00000  -0.99944   0.00000  -5.05053   0.00000  -0.49292   0.00000  -0.00788   0.00000  -1.01967   0.00000  -0.58537   0.00000  -0.33725   0.00000  -0.65915   0.00000  -0.00602   0.00000  -0.83613
 -8.62155  -0.00000  -0.99737   0.00000  -5.01231   0.00000  -0.49255  -0.00000  -0.00792  -0.00000  -1.00478   0.00000  -0.58066  -0.00000  -0.33958   0.00000  -0.69015   0.00000  -0.00922   0.00000  -0.83914   0.00000  -0.99944   0.00000  -5.05053   0.00000  -0.49292   0.00000  -0.00788   0.00000  -1.01967   0.00000  -0.58537   0.00000  -0.33725   0.00000  -0.65915   0.00000  -0.00602   0.00000  -0.83613
 -8.57143  -0.00000  -0.99737  -0.00000  -5.01231  -0.00000  -0.49255   0.00000  -0.00792  -0.00000  -1.00478  -0.00000  -0.58066  -0.00000  -0.33958  -0.00000  -0.69015   0.00000  -0.00922  -0.00000  -0.83914   0.00000  -0.99944   0.00000  -5.05053   0.00000  -0.49292   0.00000  -0.00788   0.00000  -1.01967   0.00000  -0.58537   0.00000  -0.33725   0.00000  -0.65915   0.00000  -0.00602   0.00000  -0.83613
 -8.52130  -0.00000  -0.99737  -0.00000  -5.01231  -0.00000  -0.49255   0.00000  -0.00792  -0.00000  -1.00478  -0.00000  -0.58066  -0.00000  -0.33958  -0.00000  -0.69015   0.00000  -0.00922  -0.00000  -0.83914   0.00000  -0.99944   0.00000  -5.05053   0.00000  -0.49292   0.00000  -0.00788   0.00000  -1.01967   0.00000  -0.58537   0.00000  -0.33725   0.00000  -0.65915   0.00000  -0.00602   0.00000  -0.83613
 -8.47118  -0.00000  -0.99737  -0.00000  -5.01231  -0.00000  -0.49255   0.00000  -0.00792  -0.00000  -1.00478  -0.00000  -0.58066  -0.00000  -0.33958  -0.00000  -0.69015   0.00000  -0.00922  -0.00000  -0.83914  -0.00000  -0.99944  -0.00000  -5.05053  -0.00000  -0.49292   0.00000  -0.00788  -0.00000  -1.01967  -0.00000  -0.58537  -0.00000  -0.33725  -0.00000  -0.65915   0.00000  -0.00602  -0.00000  -0.83613
 -8.42105  -0.00000  -0.99737  -0.00000  -5.01231  -0.00000  -0.49255   0.00000  -0.00792  -0.00000  -1.00478  -0.00000  -0.58066  -0.00000  -0.33958  -0.00000  -0.69015   0.00000  -0.00922  -0.00000  -0.83914  -0.00000  -0.99944  -0.00000  -5.05053  -0.00000  -0.49292   0.00000  -0.00788  -0.00000  -1.01967  -0.00000  -0.58537  -0.00000  -0.33725  -0.00000  -0.65915   0.00000  -0.00602  -0.00000  -0.83613
 -8.37093  -0.00000  -0.99737  -0.00000  -5.01231  -0.00000  -0.49255   0.00000  -0.00792  -0.00000  -1.00478  -0.00000  -0.58066  -0.00000  -0.33958  -0.00000  -0.69015   0.00000  -0.00922  -0.00000  -0.83914  -0.00000  -0.99944  -0.00000  -5.05053  -0.00000  -0.49292   0.00000  -0.00788  -0.00000  -1.01967  -0.00000  -0.58537  -0.00000  -0.33725  -0.00000  -0.65915   0.00000  -0.00602  -0.00000  -0.83613
 -8.32080  -0.00000  -0.99737  -0.00002  -5.01231  -0.00000  -0.49255   0.00000  -0.00792  -0.00001  -1.00478  -0.00000  -0.58066  -0.00000  -0.33958  -0.00001  -0.69015   0.00000  -0.00922  -0.00000  -0.83914  -0.00000  -0.99944  -0.00000  -5.05053  -0.00000  -0.49292   0.00000  -0.00788  -0.00000  -1.01967  -0.00000  -0.58537  -0.00000  -0.33725  -0.00000  -0.65915   0.00000  -0.00602  -0.00000  -0.83613
 -8.27068  -0.00007  -0.99737  -0.00028  -5.01232  -0.00005  -0.49255   0.00001  -0.00792  -0.00012  -1.00479  -0.00003  -0.58067  -0.00003  -0.33958  -0.00010  -0.69015   0.00001  -0.00922  -0.00006  -0.83915  -0.00000  -0.99944  -0.00000  -5.05053  -0.00000  -0.49292   0.00000  -0.00788  -0.00000  -1.01967  -0.00000  -0.58537  -0.00000  -0.33725  -0.00000  -0.65915   0.00000  -0.00602  -0.00000  -0.83613
 -8.22055  -0.00085  -0.99741  -0.00325  -5.01249  -0.00060  -0.49258   0.00010  -0.00791  -0.00138  -1.00486  -0.00033  -0.58068  -0.00035  -0.33960  -0.00123  -0.69022   0.00013  -0.00922  -0.00069  -0.83918  -0.00000  -0.99944  -0.00001  -5.05053  -0.00000  -0.49292   0.00000  -0.00788  -0.00000  -1.01967  -0.00000  -0.58537  -0.00000  -0.33725  -0.00000  -0.65915   0.00000  -0.00602  -0.00000  -0.83613
 -8.17043  -0.00643  -0.99774  -0.02472  -5.01373  -0.00456  -0.49281   0.00075  -0.00788  -0.01047  -1.00538  -0.00250  -0.58081  -0.00270  -0.33974  -0.00937  -0.69068   0.00098  -0.00917  -0.00525  -0.83944  -0.00003  -0.99944  -0.00013  -5.05054  -0.00002  -0.49292   0.00000  -0.00788  -0.00005  -1.01967  -0.00001  -0.58537  -0.00001  -0.33725  -0.00004  -0.65916   0.00000  -0.00602  -0.00003  -0.83613
 -8.12030  -0.03251  -0.99937  -0.12492  -5.01999  -0.02308  -0.49397   0.00376  -0.00769  -0.05294  -1.00804  -0.01259  -0.58144  -0.01369  -0.34042  -0.04748  -0.69306   0.00489  -0.00892  -0.02654  -0.84077  -0.00043  -0.99946  -0.00173  -5.05062  -0.00028  -0.49293   0.00004  -0.00788  -0.00072  -1.01971  -0.00016  -0.58538  -0.00019  -0.33726  -0.00054  -0.65918   0.00006  -0.00602  -0.00039  -0.83615
 -8.07018  -0.11383  -1.00507  -0.43675  -5.04188  -0.08100  -0.49803   0.01301  -0.00704  -0.18532  -1.01732  -0.04384  -0.58364  -0.04802  -0.34283  -0.16660  -0.70142   0.01675  -0.00808  -0.09269  -0.84542  -0.00371  -0.99965  -0.01478  -5.05136  -0.00236  -0.49305   0.00034  -0.00786  -0.00616  -1.02002  -0.00137  -0.58545  -0.00162  -0.33734  -0.00465  -0.65942   0.00051  -0.00599  -0.00329  -0.83632
 -8.02005  -0.29087  -1.01965  -1.11392  -5.09772  -0.20766  -0.50844   0.03260  -0.00540  -0.47345  -1.04106  -0.11130  -0.58922  -0.12282  -0.34898  -0.42689  -0.72281   0.04159  -0.00600  -0.23602  -0.85725  -0.02088  -1.00069  -0.08315  -5.05553  -0.01333  -0.49372   0.00189  -0.00777  -0.03466  -1.02176  -0.00767  -0.58583  -0.00915  -0.33780  -0.02622  -0.66073   0.00285  -0.00585  -0.01849  -0.83724
 -7.96992  -0.56676  -1.04806  -2.16610  -5.20629  -0.40614  -0.52880   0.06195  -0.00230  -0.92209  -1.08728  -0.21540  -0.60001  -0.23941  -0.36098  -0.83391  -0.76461   0.07833  -0.00207  -0.45803  -0.88021  -0.08036  -1.00472  -0.31973  -5.07156  -0.05141  -0.49630   0.00715  -0.00741  -0.13339  -1.02844  -0.02940  -0.58731  -0.03527  -0.33956  -0.10095  -0.66579   0.01075  -0.00531  -0.07097  -0.84080
 -7.91980  -0.84370  -1.09035  -3.21960  -5.36768  -0.60676  -0.55921   0.09000   0.00221  -1.37149  -1.15602  -0.31889  -0.61600  -0.35650  -0.37885  -1.24343  -0.82694   0.11296   0.00359  -0.67960  -0.91427  -0.22253  -1.01587  -0.88447  -5.11589  -0.14289  -0.50346   0.01931  -0.00644  -0.36946  -1.04696  -0.08103  -0.59137  -0.09779  -0.34447  -0.27963  -0.67981   0.02897  -0.00386  -0.19577  -0.85061
 -7.86967  -0.92068  -1.13650  -3.51038  -5.54363  -0.66400  -0.59249   0.09635   0.00704  -1.49482  -1.23095  -0.34671  -0.63338  -0.38919  -0.39836  -1.35754  -0.89499   0.12028   0.00962  -0.74012  -0.95137  -0.46693  -1.03928  -1.85386  -5.20882  -0.30118  -0.51855   0.03918  -0.00448  -0.77530  -1.08582  -0.16914  -0.59985  -0.20545  -0.35476  -0.58652  -0.70921   0.05871  -0.00091  -0.40882  -0.87111
 -7.81955  -0.69833  -1.17151  -2.66182  -5.67706  -0.50471  -0.61779   0.07208   0.01066  -1.13224  -1.28770  -0.26244  -0.64653  -0.29539  -0.41317  -1.02926  -0.94658   0.08970   0.01412  -0.56088  -0.97949  -0.75533  -1.07714  -2.99654  -5.35902  -0.48940  -0.54309   0.06119  -0.00141  -1.25370  -1.14867  -0.27229  -0.61350  -0.33282  -0.37145  -0.94769  -0.75671   0.09170   0.00368  -0.65843  -0.90411
 -7.76942  -0.35314  -1.18921  -1.34613  -5.74453  -0.25563  -0.63061   0.03610   0.01247  -0.57175  -1.31636  -0.13259  -0.65318  -0.14950  -0.42066  -0.52000  -0.97265   0.04484   0.01636  -0.28358  -0.99370  -0.91226  -1.12287  -3.61797  -5.54037  -0.59322  -0.57282   0.07178   0.00219  -1.51287  -1.22450  -0.32765  -0.62992  -0.40259  -0.39163  -1.14262  -0.81398   0.10766   0.00908  -0.79288  -0.94385
 -7.71930  -0.11596  -1.19502  -0.44214  -5.76670  -0.08406  -0.63482   0.01177   0.01306  -0.18748  -1.32576  -0.04353  -0.65536  -0.04914  -0.42313  -0.17056  -0.98119   0.01460   0.01710  -0.09314  -0.99837  -0.77894  -1.16191  -3.08941  -5.69523  -0.50786  -0.59828   0.06002   0.00519  -1.29025  -1.28917  -0.27911  -0.64391  -0.34427  -0.40888  -0.97370  -0.86279   0.09010   0.01360  -0.67597  -0.97774
 -7.66917  -0.02481  -1.19626  -0.09460  -5.77144  -0.01808  -0.63573   0.00248   0.01318  -0.03998  -1.32776  -0.00934  -0.65583  -0.01054  -0.42365  -0.03644  -0.98302   0.00307   0.01725  -0.01985  -0.99937  -0.44859  -1.18440  -1.77969  -5.78444  -0.29303  -0.61297   0.03406   0.00690  -0.74209  -1.32637  -0.16054  -0.65196  -0.19854  -0.41884  -0.55961  -0.89084   0.05120   0.01616  -0.38908  -0.99724
 -7.61905  -0.00589  -1.19656  -0.02242  -5.77256  -0.00469  -0.63596   0.00048   0.01321  -0.00908  -1.32822  -0.00236  -0.65595  -0.00259  -0.42378  -0.00861  -0.98345   0.00057   0.01728  -0.00430  -0.99958  -0.16889  -1.19286  -0.67029  -5.81803  -0.11049  -0.61850   0.01269   0.00754  -0.27901  -1.34036  -0.06041  -0.65499  -0.07484  -0.42259  -0.21026  -0.90138   0.01910   0.01712  -0.14648  -1.00458
 -7.56892  -0.00936  -1.19703  -0.03574  -5.77435  -0.00826  -0.63637   0.00056   0.01323  -0.01347  -1.32889  -0.00414  -0.65615  -0.00434  -0.42400  -0.01335  -0.98412   0.00062   0.01731  -0.00612  -0.99989  -0.04097  -1.19492  -0.16274  -5.82619  -0.02687  -0.61985   0.00305   0.00769  -0.06752  -1.34374  -0.01469  -0.65572  -0.01819  -0.42350  -0.05086  -0.90393   0.00459   0.01735  -0.03551  -1.00636
 -7.51880  -0.02140  -1.19810  -0.08262  -5.77849  -0.01917  -0.63734   0.00121   0.01329  -0.02954  -1.33038  -0.01007  -0.65666  -0.01030  -0.42452  -0.02910  -0.98558   0.00134   0.01738  -0.01437  -1.00061  -0.00769  -1.19530  -0.03096  -5.82774  -0.00529  -0.62012   0.00052   0.00772  -0.01212  -1.34435  -0.00303  -0.65587  -0.00353  -0.42368  -0.00911  -0.90439   0.00079   0.01739  -0.00645  -1.00668
 -7.46867  -0.03898  -1.20005  -0.15546  -5.78629  -0.03526  -0.63910   0.00204   0.01340  -0.04801  -1.33278  -0.02116  -0.65772  -0.02048  -0.42554  -0.04604  -0.98789   0.00230   0.01749  -0.02873  -1.00205  -0.00731  -1.19567  -0.03135  -5.82932  -0.00596  -0.62041   0.00028   0.00773  -0.00918  -1.34481  -0.00407  -0.65608  -0.00382  -0.42387  -0.00671  -0.90472   0.00049   0.01741  -0.00549  -1.00696
 -7.41855  -0.07349  -1.20374  -0.31386  -5.80202  -0.06635  -0.64243   0.00335   0.01356  -0.06907  -1.33624  -0.05056  -0.66025  -0.04482  -0.42779  -0.06009  -0.99090   0.00388   0.01769  -0.06389  -1.00525  -0.02243  -1.19679  -0.09886  -5.83427  -0.01842  -0.62134   0.00076   0.00777  -0.02520  -1.34607  -0.01409  -0.65678  -0.01215  -0.42448  -0.01752  -0.90560   0.00138   0.01748  -0.01774  -1.00785
 -7.36842  -0.17596  -1.21256  -0.80055  -5.84215  -0.15480  -0.65019   0.00716   0.01392  -0.12285  -1.34240  -0.14315  -0.66743  -0.11877  -0.43374  -0.08680  -0.99525   0.00861   0.01812  -0.17254  -1.01390  -0.06222  -1.19991  -0.28488  -5.84855  -0.04961  -0.62383   0.00200   0.00787  -0.05913  -1.34903  -0.04512  -0.65905  -0.03491  -0.42623  -0.03706  -0.90746   0.00362   0.01767  -0.05489  -1.01060
 -7.31830  -0.42710  -1.23397  -2.00270  -5.94253  -0.36511  -0.66849   0.01666   0.01476  -0.26081  -1.35547  -0.36855  -0.68590  -0.29644  -0.44860  -0.15218  -1.00288   0.02068   0.01916  -0.43541  -1.03572  -0.16591  -1.20823  -0.79168  -5.88823  -0.12606  -0.63014   0.00513   0.00813  -0.12733  -1.35542  -0.13781  -0.66595  -0.09572  -0.43102  -0.06589  -0.91076   0.00903   0.01812  -0.16290  -1.01877
 -7.26817  -0.81885  -1.27501  -3.89048  -6.13754  -0.68593  -0.70287   0.03162   0.01634  -0.48389  -1.37973  -0.71792  -0.72189  -0.56902  -0.47713  -0.25442  -1.01563   0.03997   0.02116  -0.83958  -1.07781  -0.40392  -1.22847  -1.97690  -5.98733  -0.29400  -0.64488   0.01231   0.00874  -0.27006  -1.36895  -0.35979  -0.68399  -0.23422  -0.44277  -0.11426  -0.91649   0.02108   0.01917  -0.41942  -1.03979
 -7.21805  -1.11771  -1.33104  -5.34681  -6.40556  -0.92295  -0.74914   0.04311   0.01850  -0.66223  -1.41292  -0.98213  -0.77112  -0.77199  -0.51582  -0.33134  -1.03224   0.05513   0.02392  -1.14018  -1.13496  -0.77175  -1.26716  -3.82283  -6.17895  -0.54460  -0.67218   0.02344   0.00992  -0.49379  -1.39371  -0.70400  -0.71928  -0.44315  -0.46498  -0.18474  -0.92575   0.03970   0.02116  -0.81580  -1.08068
 -7.16792  -1.04692  -1.38351  -5.03106  -6.65774  -0.85393  -0.79194   0.04049   0.02053  -0.63201  -1.44460  -0.91650  -0.81706  -0.71627  -0.55173  -0.30898  -1.04773   0.05218   0.02654  -1.05617  -1.18790  -1.06273  -1.32043  -5.29852  -6.44454  -0.73104  -0.70882   0.03225   0.01153  -0.68278  -1.42793  -0.97431  -0.76811  -0.60029  -0.49507  -0.24023  -0.93779   0.05450   0.02390  -1.12416  -1.13703
 -7.11779  -0.67126  -1.41716  -3.24075  -6.82018  -0.53906  -0.81896   0.02613   0.02184  -0.42164  -1.46574  -0.58123  -0.84619  -0.45182  -0.57437  -0.20478  -1.05799   0.03387   0.02824  -0.66205  -1.22109  -1.03042  -1.37208  -5.16141  -6.70325  -0.69129  -0.74347   0.03123   0.01310  -0.68040  -1.46204  -0.94195  -0.81533  -0.57008  -0.52364  -0.23179  -0.94941   0.05292   0.02655  -1.08104  -1.19122
 -7.06767  -0.31053  -1.43273  -1.51164  -6.89595  -0.24175  -0.83108   0.01228   0.02246  -0.21384  -1.47646  -0.26075  -0.85926  -0.20109  -0.58445  -0.10531  -1.06327   0.01602   0.02904  -0.28873  -1.23556  -0.70499  -1.40742  -3.54610  -6.88100  -0.45998  -0.76653   0.02130   0.01417  -0.48696  -1.48644  -0.63896  -0.84736  -0.37989  -0.54269  -0.16327  -0.95759   0.03632   0.02837  -0.72734  -1.22768
 -7.01754  -0.12255  -1.43887  -0.60687  -6.92637  -0.08927  -0.83555   0.00502   0.02271  -0.10113  -1.48153  -0.09525  -0.86404  -0.07233  -0.58808  -0.05174  -1.06587   0.00658   0.02937  -0.09793  -1.24047  -0.34884  -1.42490  -1.76409  -6.96943  -0.21897  -0.77751   0.01049   0.01469  -0.26070  -1.49951  -0.31001  -0.86290  -0.18019  -0.55172  -0.08758  -0.96198   0.01808   0.02928  -0.34661  -1.24505
 -6.96742  -0.05185  -1.44147  -0.26282  -6.93955  -0.03445  -0.83728   0.00221   0.02282  -0.05302  -1.48419  -0.03543  -0.86581  -0.02628  -0.58940  -0.02819  -1.06728   0.00291   0.02951  -0.03155  -1.24205  -0.14051  -1.43195  -0.71938  -7.00549  -0.08108  -0.78157   0.00419   0.01490  -0.12562  -1.50581  -0.11770  -0.86880  -0.06525  -0.55499  -0.04360  -0.96417   0.00739   0.02965  -0.12356  -1.25124
 -6.91729  -0.02462  -1.44270  -0.12705  -6.94592  -0.01511  -0.83804   0.00108   0.02288  -0.03028  -1.48570  -0.01439  -0.86653  -0.01032  -0.58991  -0.01659  -1.06811   0.00140   0.02958  -0.01028  -1.24256  -0.06440  -1.43517  -0.33860  -7.02246  -0.03117  -0.78313   0.00189   0.01500  -0.07626  -1.50963  -0.04718  -0.87116  -0.02344  -0.55616  -0.02764  -0.96555   0.00350   0.02982  -0.04074  -1.25328
 -6.86717  -0.01319  -1.44336  -0.06783  -6.94932  -0.00743  -0.83841   0.00057   0.02290  -0.02065  -1.48674  -0.00608  -0.86684  -0.00390  -0.59011  -0.01222  -1.06872   0.00070   0.02962  -0.00188  -1.24266  -0.03945  -1.43715  -0.21272  -7.03312  -0.01627  -0.78395   0.00114   0.01506  -0.05588  -1.51243  -0.02553  -0.87244  -0.01121  -0.55673  -0.02037  -0.96658   0.00220   0.02993  -0.01645  -1.25411
 -6.81704  -0.01035  -1.44388  -0.04993  -6.95182  -0.00522  -0.83867   0.00036   0.02292  -0.02210  -1.48785  -0.00333  -0.86700  -0.00166  -0.59019  -0.01412  -1.06943   0.00038   0.02964   0.00249  -1.24253  -0.02450  -1.43838  -0.13446  -7.03986  -0.00920  -0.78441   0.00070   0.01509  -0.03856  -1.51437  -0.01448  -0.87317  -0.00575  -0.55701  -0.01372  -0.96726   0.00137   0.03000  -0.00643  -1.25443
 -6.76692  -0.01436  -1.44460  -0.05838  -6.95474  -0.00738  -0.83904   0.00003   0.02292  -0.03390  -1.48954  -0.00550  -0.86728  -0.00314  -0.59035  -0.02178  -1.07052  -0.00033   0.02962   0.00113  -1.24248  -0.01419  -1.43909  -0.07884  -7.04382  -0.00486  -0.78465   0.00041   0.01511  -0.02622  -1.51568  -0.00730  -0.87353  -0.00244  -0.55714  -0.00904  -0.96772   0.00077   0.03004  -0.00022  -1.25444
 -6.71679  -0.03955  -1.44658  -0.12794  -6.96116  -0.02387  -0.84024  -0.00158   0.02284  -0.07925  -1.49352  -0.02589  -0.86858  -0.01589  -0.59114  -0.05513  -1.07329  -0.00413   0.02941  -0.02228  -1.24359  -0.00954  -1.43957  -0.05191  -7.04642  -0.00286  -0.78480   0.00029   0.01513  -0.02336  -1.51685  -0.00386  -0.87372  -0.00068  -0.55717  -0.00826  -0.96813   0.00041   0.03006   0.00438  -1.25422
 -6.66667  -0.14066  -1.45363  -0.42496  -6.98246  -0.09189  -0.84484  -0.00728   0.02248  -0.24987  -1.50604  -0.10854  -0.87402  -0.06606  -0.59446  -0.18718  -1.08267  -0.01830   0.02850  -0.11187  -1.24920  -0.01038  -1.44009  -0.04934  -7.04889  -0.00280  -0.78494   0.00015   0.01513  -0.03044  -1.51838  -0.00423  -0.87394  -0.00033  -0.55719  -0.01212  -0.96874  -0.00014   0.03005   0.00579  -1.25393
 -6.61654  -0.37640  -1.47250  -1.13429  -7.03932  -0.25176  -0.85746  -0.01975   0.02149  -0.64530  -1.53839  -0.29906  -0.88901  -0.18180  -0.60357  -0.49302  -1.10738  -0.05015   0.02598  -0.31244  -1.26486  -0.02317  -1.44125  -0.08426  -7.05311  -0.00852  -0.78536  -0.00046   0.01511  -0.05799  -1.52128  -0.01546  -0.87471  -0.00444  -0.55741  -0.02888  -0.97019  -0.00264   0.02992  -0.00586  -1.25423
 -6.56642  -0.65792  -1.50548  -1.99408  -7.13927  -0.44394  -0.87971  -0.03398   0.01979  -1.11576  -1.59432  -0.52512  -0.91533  -0.31961  -0.61959  -0.85317  -1.15015  -0.08750   0.02160  -0.54815  -1.29234  -0.08371  -1.44545  -0.27424  -7.06686  -0.03927  -0.78733  -0.00249   0.01499  -0.16812  -1.52971  -0.07071  -0.87826  -0.02566  -0.55870  -0.09892  -0.97514  -0.01254   0.02929  -0.06141  -1.25730
 -6.51629  -0.73648  -1.54240  -2.25128  -7.25212  -0.49946  -0.90475  -0.03708   0.01793  -1.24221  -1.65658  -0.58753  -0.94478  -0.35771  -0.63752  -0.94510  -1.19752  -0.09710   0.01673  -0.61087  -1.32296  -0.25820  -1.45839  -0.84777  -7.10936  -0.12964  -0.79383  -0.00734   0.01462  -0.47560  -1.55355  -0.22959  -0.88976  -0.08607  -0.56301  -0.29362  -0.98986  -0.03902   0.02734  -0.21517  -1.26809