  COHP#       atomMU       atomNU     distance     translation      ICOHP (at) eF   for spin  1
      1          N38          N37      1.31689       0   0   0           -6.26462 
      2          Mn7          N37      1.97013       0   0   0           -0.79965 
      3          Mn8          N37      3.14651       0   0   0           -0.02727 
      4         Mo25          N37      2.07773       0   0   0           -1.73190 
      5         Mo26          N37      2.21550       0   0   0           -0.89866 
      6          Mn7          N38      2.10304       0   0   0           -0.55980 
      7          Mn8          N38      1.97066       0   0   0           -0.84162 
      8         Mo25          N38      3.23265       0   0   0           -0.03532 
      9         Mo26          N38      2.10140       0   0   0           -1.39429 
  COHP#       atomMU       atomNU     distance     translation      ICOHP (at) eF   for spin  2
      1          N38          N37      1.31689       0   0   0           -6.03367 
      2          Mn7          N37      1.97013       0   0   0           -1.03695 
      3          Mn8          N37      3.14651       0   0   0           -0.03306 
      4         Mo25          N37      2.07773       0   0   0           -1.68870 
      5         Mo26          N37      2.21550       0   0   0           -0.90009 
      6          Mn7          N38      2.10304       0   0   0           -0.70368 
      7          Mn8          N38      1.97066       0   0   0           -1.25051 
      8         Mo25          N38      3.23265       0   0   0           -0.03102 
      9         Mo26          N38      2.10140       0   0   0           -1.38394 
