ESCALE ; pCOHP file generated by LOBSTER. Energy is shifted such that the Fermi level lies at 0 eV.
         2          2        401  -8.34586e+00   1.17043e+01   1.67920e+00 
Average
No.1:Mo28->Mo25(2.9252581791386851)
-10.02506   0.00000  -0.11299   0.00000  -0.11299   0.00000  -0.11250   0.00000  -0.11250
 -9.97494   0.00000  -0.11299   0.00000  -0.11299   0.00000  -0.11250   0.00000  -0.11250
 -9.92481   0.00000  -0.11299   0.00000  -0.11299   0.00000  -0.11250   0.00000  -0.11250
 -9.87469   0.00000  -0.11299   0.00000  -0.11299   0.00000  -0.11250   0.00000  -0.11250
 -9.82456   0.00000  -0.11299   0.00000  -0.11299   0.00000  -0.11250   0.00000  -0.11250
 -9.77444   0.00000  -0.11299   0.00000  -0.11299   0.00000  -0.11250   0.00000  -0.11250
 -9.72431   0.00000  -0.11299   0.00000  -0.11299   0.00000  -0.11250   0.00000  -0.11250
 -9.67419   0.00000  -0.11299   0.00000  -0.11299   0.00000  -0.11250   0.00000  -0.11250
 -9.62406   0.00000  -0.11299   0.00000  -0.11299   0.00000  -0.11250   0.00000  -0.11250
 -9.57393   0.00000  -0.11299   0.00000  -0.11299   0.00000  -0.11250   0.00000  -0.11250
 -9.52381   0.00000  -0.11299   0.00000  -0.11299   0.00000  -0.11250   0.00000  -0.11250
 -9.47368   0.00000  -0.11299   0.00000  -0.11299   0.00000  -0.11250   0.00000  -0.11250
 -9.42356   0.00000  -0.11299   0.00000  -0.11299   0.00000  -0.11250   0.00000  -0.11250
 -9.37343   0.00000  -0.11299   0.00000  -0.11299   0.00000  -0.11250   0.00000  -0.11250
 -9.32331   0.00000  -0.11299   0.00000  -0.11299   0.00000  -0.11250   0.00000  -0.11250
 -9.27318   0.00000  -0.11299   0.00000  -0.11299   0.00000  -0.11250   0.00000  -0.11250
 -9.22306   0.00000  -0.11299   0.00000  -0.11299   0.00000  -0.11250   0.00000  -0.11250
 -9.17293   0.00000  -0.11299   0.00000  -0.11299   0.00000  -0.11250   0.00000  -0.11250
 -9.12281   0.00000  -0.11299   0.00000  -0.11299   0.00000  -0.11250   0.00000  -0.11250
 -9.07268   0.00000  -0.11299   0.00000  -0.11299   0.00000  -0.11250   0.00000  -0.11250
 -9.02256   0.00000  -0.11299   0.00000  -0.11299   0.00000  -0.11250   0.00000  -0.11250
 -8.97243   0.00000  -0.11299   0.00000  -0.11299   0.00000  -0.11250   0.00000  -0.11250
 -8.92231   0.00000  -0.11299   0.00000  -0.11299   0.00000  -0.11250   0.00000  -0.11250
 -8.87218   0.00000  -0.11299   0.00000  -0.11299   0.00000  -0.11250   0.00000  -0.11250
 -8.82206   0.00000  -0.11299   0.00000  -0.11299   0.00000  -0.11250   0.00000  -0.11250
 -8.77193   0.00000  -0.11299   0.00000  -0.11299   0.00000  -0.11250   0.00000  -0.11250
 -8.72180   0.00000  -0.11299   0.00000  -0.11299   0.00000  -0.11250   0.00000  -0.11250
 -8.67168   0.00000  -0.11299   0.00000  -0.11299   0.00000  -0.11250   0.00000  -0.11250
 -8.62155   0.00000  -0.11299   0.00000  -0.11299   0.00000  -0.11250   0.00000  -0.11250
 -8.57143   0.00000  -0.11299   0.00000  -0.11299   0.00000  -0.11250   0.00000  -0.11250
 -8.52130   0.00000  -0.11299   0.00000  -0.11299   0.00000  -0.11250   0.00000  -0.11250
 -8.47118   0.00000  -0.11299   0.00000  -0.11299   0.00000  -0.11250   0.00000  -0.11250
 -8.42105   0.00000  -0.11299   0.00000  -0.11299   0.00000  -0.11250   0.00000  -0.11250
 -8.37093   0.00000  -0.11299   0.00000  -0.11299   0.00000  -0.11250   0.00000  -0.11250
 -8.32080   0.00000  -0.11299   0.00000  -0.11299   0.00000  -0.11250   0.00000  -0.11250
 -8.27068   0.00000  -0.11299   0.00000  -0.11299   0.00000  -0.11250   0.00000  -0.11250
 -8.22055   0.00000  -0.11299   0.00000  -0.11299   0.00000  -0.11250   0.00000  -0.11250
 -8.17043   0.00000  -0.11299   0.00000  -0.11299   0.00000  -0.11250   0.00000  -0.11250
 -8.12030   0.00000  -0.11299   0.00000  -0.11299   0.00000  -0.11250   0.00000  -0.11250
 -8.07018   0.00000  -0.11299   0.00000  -0.11299   0.00000  -0.11250   0.00000  -0.11250
 -8.02005   0.00000  -0.11299   0.00000  -0.11299   0.00000  -0.11250   0.00000  -0.11250
 -7.96992   0.00000  -0.11299   0.00000  -0.11299   0.00000  -0.11250   0.00000  -0.11250
 -7.91980   0.00000  -0.11299   0.00000  -0.11299   0.00000  -0.11250   0.00000  -0.11250
 -7.86967  -0.00000  -0.11299  -0.00000  -0.11299   0.00000  -0.11250   0.00000  -0.11250
 -7.81955  -0.00000  -0.11299  -0.00000  -0.11299   0.00000  -0.11250   0.00000  -0.11250
 -7.76942  -0.00000  -0.11299  -0.00000  -0.11299  -0.00000  -0.11250  -0.00000  -0.11250
 -7.71930  -0.00000  -0.11299  -0.00000  -0.11299  -0.00000  -0.11250  -0.00000  -0.11250
 -7.66917  -0.00000  -0.11299  -0.00000  -0.11299  -0.00000  -0.11250  -0.00000  -0.11250
 -7.61905  -0.00000  -0.11299  -0.00000  -0.11299  -0.00000  -0.11250  -0.00000  -0.11250
 -7.56892  -0.00000  -0.11299  -0.00000  -0.11299  -0.00000  -0.11250  -0.00000  -0.11250
 -7.51880  -0.00002  -0.11299  -0.00002  -0.11299  -0.00000  -0.11250  -0.00000  -0.11250
 -7.46867  -0.00010  -0.11299  -0.00010  -0.11299  -0.00000  -0.11250  -0.00000  -0.11250
 -7.41855  -0.00045  -0.11301  -0.00045  -0.11301  -0.00001  -0.11250  -0.00001  -0.11250
 -7.36842  -0.00135  -0.11308  -0.00135  -0.11308  -0.00009  -0.11250  -0.00009  -0.11250
 -7.31830  -0.00285  -0.11323  -0.00285  -0.11323  -0.00041  -0.11252  -0.00041  -0.11252
 -7.26817  -0.00415  -0.11343  -0.00415  -0.11343  -0.00131  -0.11259  -0.00131  -0.11259
 -7.21805  -0.00450  -0.11366  -0.00450  -0.11366  -0.00292  -0.11274  -0.00292  -0.11274
 -7.16792  -0.00450  -0.11388  -0.00450  -0.11388  -0.00451  -0.11296  -0.00451  -0.11296
 -7.11779  -0.00493  -0.11413  -0.00493  -0.11413  -0.00509  -0.11322  -0.00509  -0.11322
 -7.06767  -0.00504  -0.11438  -0.00504  -0.11438  -0.00512  -0.11347  -0.00512  -0.11347
 -7.01754  -0.00402  -0.11459  -0.00402  -0.11459  -0.00563  -0.11376  -0.00563  -0.11376
 -6.96742  -0.00268  -0.11472  -0.00268  -0.11472  -0.00597  -0.11405  -0.00597  -0.11405
 -6.91729  -0.00238  -0.11484  -0.00238  -0.11484  -0.00501  -0.11431  -0.00501  -0.11431
 -6.86717  -0.00299  -0.11499  -0.00299  -0.11499  -0.00339  -0.11448  -0.00339  -0.11448
 -6.81704  -0.00319  -0.11515  -0.00319  -0.11515  -0.00283  -0.11462  -0.00283  -0.11462
 -6.76692  -0.00252  -0.11528  -0.00252  -0.11528  -0.00360  -0.11480  -0.00360  -0.11480
 -6.71679  -0.00161  -0.11536  -0.00161  -0.11536  -0.00415  -0.11501  -0.00415  -0.11501
 -6.66667  -0.00071  -0.11539  -0.00071  -0.11539  -0.00354  -0.11518  -0.00354  -0.11518
 -6.61654   0.00019  -0.11538   0.00019  -0.11538  -0.00244  -0.11531  -0.00244  -0.11531
 -6.56642   0.00055  -0.11535   0.00055  -0.11535  -0.00145  -0.11538  -0.00145  -0.11538
 -6.51629  -0.00025  -0.11537  -0.00025  -0.11537  -0.00068  -0.11541  -0.00068  -0.11541
 -6.46617  -0.00175  -0.11546  -0.00175  -0.11546  -0.00023  -0.11542  -0.00023  -0.11542
 -6.41604  -0.00269  -0.11559  -0.00269  -0.11559  -0.00024  -0.11544  -0.00024  -0.11544
 -6.36591  -0.00262  -0.11572  -0.00262  -0.11572  -0.00087  -0.11548  -0.00087  -0.11548
 -6.31579  -0.00219  -0.11583  -0.00219  -0.11583  -0.00194  -0.11558  -0.00194  -0.11558
 -6.26566  -0.00237  -0.11595  -0.00237  -0.11595  -0.00270  -0.11571  -0.00270  -0.11571
 -6.21554  -0.00456  -0.11618  -0.00456  -0.11618  -0.00268  -0.11585  -0.00268  -0.11585
 -6.16541  -0.00948  -0.11665  -0.00948  -0.11665  -0.00245  -0.11597  -0.00245  -0.11597
 -6.11529  -0.01511  -0.11741  -0.01511  -0.11741  -0.00314  -0.11613  -0.00314  -0.11613
 -6.06516  -0.01865  -0.11835  -0.01865  -0.11835  -0.00592  -0.11642  -0.00592  -0.11642
 -6.01504  -0.01954  -0.11933  -0.01954  -0.11933  -0.01049  -0.11695  -0.01049  -0.11695
 -5.96491  -0.01739  -0.12020  -0.01739  -0.12020  -0.01472  -0.11769  -0.01472  -0.11769
 -5.91479  -0.01223  -0.12081  -0.01223  -0.12081  -0.01703  -0.11854  -0.01703  -0.11854
 -5.86466  -0.00735  -0.12118  -0.00735  -0.12118  -0.01665  -0.11938  -0.01665  -0.11938
 -5.81454  -0.00588  -0.12147  -0.00588  -0.12147  -0.01300  -0.12003  -0.01300  -0.12003
 -5.76441  -0.00714  -0.12183  -0.00714  -0.12183  -0.00769  -0.12041  -0.00769  -0.12041
 -5.71429  -0.00838  -0.12225  -0.00838  -0.12225  -0.00400  -0.12061  -0.00400  -0.12061
 -5.66416  -0.00860  -0.12268  -0.00860  -0.12268  -0.00376  -0.12080  -0.00376  -0.12080
 -5.61404  -0.00910  -0.12314  -0.00910  -0.12314  -0.00615  -0.12111  -0.00615  -0.12111
 -5.56391  -0.01044  -0.12366  -0.01044  -0.12366  -0.00867  -0.12155  -0.00867  -0.12155
 -5.51378  -0.01166  -0.12425  -0.01166  -0.12425  -0.01035  -0.12206  -0.01035  -0.12206
 -5.46366  -0.01318  -0.12491  -0.01318  -0.12491  -0.01230  -0.12268  -0.01230  -0.12268
 -5.41353  -0.01628  -0.12572  -0.01628  -0.12572  -0.01471  -0.12342  -0.01471  -0.12342
 -5.36341  -0.02115  -0.12678  -0.02115  -0.12678  -0.01803  -0.12432  -0.01803  -0.12432
 -5.31328  -0.02726  -0.12815  -0.02726  -0.12815  -0.02363  -0.12551  -0.02363  -0.12551
 -5.26316  -0.03286  -0.12980  -0.03286  -0.12980  -0.03012  -0.12702  -0.03012  -0.12702
 -5.21303  -0.03506  -0.13155  -0.03506  -0.13155  -0.03457  -0.12875  -0.03457  -0.12875
 -5.16291  -0.03341  -0.13323  -0.03341  -0.13323  -0.03660  -0.13058  -0.03660  -0.13058
 -5.11278  -0.03157  -0.13481  -0.03157  -0.13481  -0.03728  -0.13245  -0.03728  -0.13245
 -5.06266  -0.03249  -0.13644  -0.03249  -0.13644  -0.03718  -0.13432  -0.03718  -0.13432
 -5.01253  -0.03621  -0.13826  -0.03621  -0.13826  -0.03702  -0.13617  -0.03702  -0.13617
 -4.96241  -0.04157  -0.14034  -0.04157  -0.14034  -0.03759  -0.13806  -0.03759  -0.13806
 -4.91228  -0.04596  -0.14264  -0.04596  -0.14264  -0.03951  -0.14004  -0.03951  -0.14004
 -4.86216  -0.04737  -0.14502  -0.04737  -0.14502  -0.04387  -0.14223  -0.04387  -0.14223
 -4.81203  -0.04702  -0.14737  -0.04702  -0.14737  -0.05100  -0.14479  -0.05100  -0.14479
 -4.76190  -0.04788  -0.14977  -0.04788  -0.14977  -0.05960  -0.14778  -0.05960  -0.14778
 -4.71178  -0.05348  -0.15245  -0.05348  -0.15245  -0.06621  -0.15110  -0.06621  -0.15110
 -4.66165  -0.06588  -0.15576  -0.06588  -0.15576  -0.06810  -0.15451  -0.06810  -0.15451
 -4.61153  -0.08181  -0.15986  -0.08181  -0.15986  -0.07028  -0.15803  -0.07028  -0.15803
 -4.56140  -0.09423  -0.16458  -0.09423  -0.16458  -0.08056  -0.16207  -0.08056  -0.16207
 -4.51128  -0.09818  -0.16950  -0.09818  -0.16950  -0.09698  -0.16693  -0.09698  -0.16693
 -4.46115  -0.09425  -0.17423  -0.09425  -0.17423  -0.10867  -0.17238  -0.10867  -0.17238
 -4.41103  -0.08643  -0.17856  -0.08643  -0.17856  -0.10835  -0.17781  -0.10835  -0.17781
 -4.36090  -0.07881  -0.18251  -0.07881  -0.18251  -0.09997  -0.18282  -0.09997  -0.18282
 -4.31078  -0.07607  -0.18632  -0.07607  -0.18632  -0.09220  -0.18744  -0.09220  -0.18744
 -4.26065  -0.08179  -0.19042  -0.08179  -0.19042  -0.08960  -0.19194  -0.08960  -0.19194
 -4.21053  -0.09413  -0.19514  -0.09413  -0.19514  -0.09080  -0.19649  -0.09080  -0.19649
 -4.16040  -0.10648  -0.20048  -0.10648  -0.20048  -0.09027  -0.20101  -0.09027  -0.20101
 -4.11028  -0.11586  -0.20628  -0.11586  -0.20628  -0.08660  -0.20535  -0.08660  -0.20535
 -4.06015  -0.12512  -0.21256  -0.12512  -0.21256  -0.08915  -0.20982  -0.08915  -0.20982
 -4.01003  -0.13108  -0.21913  -0.13108  -0.21913  -0.10613  -0.21514  -0.10613  -0.21514
 -3.95990  -0.12412  -0.22535  -0.12412  -0.22535  -0.12688  -0.22150  -0.12688  -0.22150
 -3.90977  -0.10557  -0.23064  -0.10557  -0.23064  -0.13211  -0.22812  -0.13211  -0.22812
 -3.85965  -0.09149  -0.23523  -0.09149  -0.23523  -0.12089  -0.23418  -0.12089  -0.23418
 -3.80952  -0.09669  -0.24007  -0.09669  -0.24007  -0.10857  -0.23962  -0.10857  -0.23962
 -3.75940  -0.12290  -0.24623  -0.12290  -0.24623  -0.10443  -0.24486  -0.10443  -0.24486
 -3.70927  -0.15758  -0.25413  -0.15758  -0.25413  -0.10784  -0.25026  -0.10784  -0.25026
 -3.65915  -0.18358  -0.26333  -0.18358  -0.26333  -0.11835  -0.25620  -0.11835  -0.25620
 -3.60902  -0.19439  -0.27308  -0.19439  -0.27308  -0.13662  -0.26304  -0.13662  -0.26304
 -3.55890  -0.19324  -0.28276  -0.19324  -0.28276  -0.15911  -0.27102  -0.15911  -0.27102
 -3.50877  -0.18224  -0.29190  -0.18224  -0.29190  -0.17958  -0.28002  -0.17958  -0.28002
 -3.45865  -0.16245  -0.30004  -0.16245  -0.30004  -0.19499  -0.28980  -0.19499  -0.28980
 -3.40852  -0.13889  -0.30700  -0.13889  -0.30700  -0.20490  -0.30007  -0.20490  -0.30007
 -3.35840  -0.11881  -0.31296  -0.11881  -0.31296  -0.20634  -0.31041  -0.20634  -0.31041
 -3.30827  -0.10481  -0.31821  -0.10481  -0.31821  -0.19562  -0.32021  -0.19562  -0.32021
 -3.25815  -0.09385  -0.32292  -0.09385  -0.32292  -0.17282  -0.32888  -0.17282  -0.32888
 -3.20802  -0.08481  -0.32717  -0.08481  -0.32717  -0.14242  -0.33602  -0.14242  -0.33602
 -3.15789  -0.08103  -0.33123  -0.08103  -0.33123  -0.11314  -0.34169  -0.11314  -0.34169
 -3.10777  -0.08401  -0.33544  -0.08401  -0.33544  -0.09373  -0.34639  -0.09373  -0.34639
 -3.05764  -0.09082  -0.33999  -0.09082  -0.33999  -0.08944  -0.35087  -0.08944  -0.35087
 -3.00752  -0.09611  -0.34481  -0.09611  -0.34481  -0.10136  -0.35595  -0.10136  -0.35595
 -2.95739  -0.09555  -0.34960  -0.09555  -0.34960  -0.12084  -0.36201  -0.12084  -0.36201
 -2.90727  -0.08940  -0.35408  -0.08940  -0.35408  -0.13082  -0.36856  -0.13082  -0.36856
 -2.85714  -0.08074  -0.35813  -0.08074  -0.35813  -0.12420  -0.37479  -0.12420  -0.37479
 -2.80702  -0.07307  -0.36179  -0.07307  -0.36179  -0.11243  -0.38042  -0.11243  -0.38042
 -2.75689  -0.06985  -0.36529  -0.06985  -0.36529  -0.10754  -0.38582  -0.10754  -0.38582
 -2.70677  -0.07097  -0.36885  -0.07097  -0.36885  -0.10866  -0.39126  -0.10866  -0.39126
 -2.65664  -0.07286  -0.37250  -0.07286  -0.37250  -0.10810  -0.39668  -0.10810  -0.39668
 -2.60652  -0.07511  -0.37627  -0.07511  -0.37627  -0.09955  -0.40167  -0.09955  -0.40167
 -2.55639  -0.08034  -0.38029  -0.08034  -0.38029  -0.08396  -0.40588  -0.08396  -0.40588
 -2.50627  -0.08739  -0.38467  -0.08739  -0.38467  -0.06944  -0.40936  -0.06944  -0.40936
 -2.45614  -0.09185  -0.38928  -0.09185  -0.38928  -0.06150  -0.41244  -0.06150  -0.41244
 -2.40602  -0.09152  -0.39387  -0.09152  -0.39387  -0.05900  -0.41540  -0.05900  -0.41540
 -2.35589  -0.08496  -0.39812  -0.08496  -0.39812  -0.06048  -0.41843  -0.06048  -0.41843
 -2.30576  -0.06930  -0.40160  -0.06930  -0.40160  -0.06708  -0.42179  -0.06708  -0.42179
 -2.25564  -0.04816  -0.40401  -0.04816  -0.40401  -0.07795  -0.42570  -0.07795  -0.42570
 -2.20551  -0.03417  -0.40572  -0.03417  -0.40572  -0.08783  -0.43010  -0.08783  -0.43010
 -2.15539  -0.03484  -0.40747  -0.03484  -0.40747  -0.09187  -0.43471  -0.09187  -0.43471
 -2.10526  -0.04328  -0.40964  -0.04328  -0.40964  -0.08995  -0.43922  -0.08995  -0.43922
 -2.05514  -0.04755  -0.41202  -0.04755  -0.41202  -0.08583  -0.44352  -0.08583  -0.44352
 -2.00501  -0.04223  -0.41414  -0.04223  -0.41414  -0.08284  -0.44767  -0.08284  -0.44767
 -1.95489  -0.03157  -0.41572  -0.03157  -0.41572  -0.08009  -0.45169  -0.08009  -0.45169
 -1.90476  -0.02484  -0.41697  -0.02484  -0.41697  -0.07625  -0.45551  -0.07625  -0.45551
 -1.85464  -0.02636  -0.41829  -0.02636  -0.41829  -0.07196  -0.45911  -0.07196  -0.45911
 -1.80451  -0.03319  -0.41995  -0.03319  -0.41995  -0.06718  -0.46248  -0.06718  -0.46248
 -1.75439  -0.03966  -0.42194  -0.03966  -0.42194  -0.06268  -0.46562  -0.06268  -0.46562
 -1.70426  -0.03915  -0.42390  -0.03915  -0.42390  -0.06093  -0.46868  -0.06093  -0.46868
 -1.65414  -0.02963  -0.42539  -0.02963  -0.42539  -0.06320  -0.47185  -0.06320  -0.47185
 -1.60401  -0.01950  -0.42637  -0.01950  -0.42637  -0.06807  -0.47526  -0.06807  -0.47526
 -1.55388  -0.01795  -0.42727  -0.01795  -0.42727  -0.07299  -0.47892  -0.07299  -0.47892
 -1.50376  -0.02296  -0.42842  -0.02296  -0.42842  -0.07705  -0.48278  -0.07705  -0.48278
 -1.45363  -0.02869  -0.42985  -0.02869  -0.42985  -0.08074  -0.48683  -0.08074  -0.48683
 -1.40351  -0.03400  -0.43156  -0.03400  -0.43156  -0.08391  -0.49103  -0.08391  -0.49103
 -1.35338  -0.04050  -0.43359  -0.04050  -0.43359  -0.08632  -0.49536  -0.08632  -0.49536
 -1.30326  -0.05280  -0.43624  -0.05280  -0.43624  -0.08745  -0.49974  -0.08745  -0.49974
 -1.25313  -0.07413  -0.43995  -0.07413  -0.43995  -0.08271  -0.50389  -0.08271  -0.50389
 -1.20301  -0.09827  -0.44488  -0.09827  -0.44488  -0.06758  -0.50727  -0.06758  -0.50727
 -1.15288  -0.11106  -0.45044  -0.11106  -0.45044  -0.04799  -0.50968  -0.04799  -0.50968
 -1.10276  -0.10437  -0.45568  -0.10437  -0.45568  -0.03271  -0.51132  -0.03271  -0.51132
 -1.05263  -0.08728  -0.46005  -0.08728  -0.46005  -0.02062  -0.51235  -0.02062  -0.51235
 -1.00251  -0.07719  -0.46392  -0.07719  -0.46392  -0.00740  -0.51272  -0.00740  -0.51272
 -0.95238  -0.08200  -0.46803  -0.08200  -0.46803   0.00798  -0.51232   0.00798  -0.51232
 -0.90226  -0.09367  -0.47273  -0.09367  -0.47273   0.02569  -0.51104   0.02569  -0.51104
 -0.85213  -0.10224  -0.47785  -0.10224  -0.47785   0.04295  -0.50888   0.04295  -0.50888
 -0.80201  -0.10842  -0.48328  -0.10842  -0.48328   0.05186  -0.50628   0.05186  -0.50628
 -0.75188  -0.11501  -0.48905  -0.11501  -0.48905   0.05018  -0.50377   0.05018  -0.50377
 -0.70175  -0.11980  -0.49505  -0.11980  -0.49505   0.04780  -0.50137   0.04780  -0.50137
 -0.65163  -0.11716  -0.50093  -0.11716  -0.50093   0.05251  -0.49874   0.05251  -0.49874
 -0.60150  -0.10393  -0.50614  -0.10393  -0.50614   0.06068  -0.49570   0.06068  -0.49570
 -0.55138  -0.08545  -0.51042  -0.08545  -0.51042   0.06866  -0.49226   0.06866  -0.49226
 -0.50125  -0.06930  -0.51389  -0.06930  -0.51389   0.08116  -0.48819   0.08116  -0.48819
 -0.45113  -0.05802  -0.51680  -0.05802  -0.51680   0.09786  -0.48328   0.09786  -0.48328
 -0.40100  -0.05066  -0.51934  -0.05066  -0.51934   0.10642  -0.47795   0.10642  -0.47795
 -0.35088  -0.04372  -0.52153  -0.04372  -0.52153   0.10039  -0.47292   0.10039  -0.47292
 -0.30075  -0.03162  -0.52312  -0.03162  -0.52312   0.08579  -0.46862   0.08579  -0.46862
 -0.25063  -0.01364  -0.52380  -0.01364  -0.52380   0.06847  -0.46519   0.06847  -0.46519
 -0.20050   0.00424  -0.52359   0.00424  -0.52359   0.05122  -0.46262   0.05122  -0.46262
 -0.15038   0.01660  -0.52276   0.01660  -0.52276   0.03663  -0.46078   0.03663  -0.46078
 -0.10025   0.02098  -0.52170   0.02098  -0.52170   0.02716  -0.45942   0.02716  -0.45942
 -0.05013   0.01727  -0.52084   0.01727  -0.52084   0.02583  -0.45813   0.02583  -0.45813
  0.00000   0.00929  -0.52037   0.00929  -0.52037   0.03156  -0.45654   0.03156  -0.45654
  0.05013   0.00238  -0.52025   0.00238  -0.52025   0.03460  -0.45481   0.03460  -0.45481
  0.10025   0.00278  -0.52012   0.00278  -0.52012   0.02811  -0.45340   0.02811  -0.45340
  0.15038   0.01487  -0.51937   0.01487  -0.51937   0.02134  -0.45233   0.02134  -0.45233
  0.20050   0.03264  -0.51773   0.03264  -0.51773   0.02560  -0.45105   0.02560  -0.45105
  0.25063   0.04421  -0.51552   0.04421  -0.51552   0.03676  -0.44921   0.03676  -0.44921
  0.30075   0.04554  -0.51323   0.04554  -0.51323   0.04307  -0.44705   0.04307  -0.44705
  0.35088   0.04094  -0.51118   0.04094  -0.51118   0.04144  -0.44497   0.04144  -0.44497
  0.40100   0.03645  -0.50936   0.03645  -0.50936   0.04042  -0.44294   0.04042  -0.44294
  0.45113   0.03679  -0.50751   0.03679  -0.50751   0.04789  -0.44054   0.04789  -0.44054
  0.50125   0.04320  -0.50535   0.04320  -0.50535   0.05945  -0.43756   0.05945  -0.43756
  0.55138   0.05067  -0.50281   0.05067  -0.50281   0.06410  -0.43435   0.06410  -0.43435
  0.60150   0.05218  -0.50019   0.05218  -0.50019   0.05800  -0.43144   0.05800  -0.43144
  0.65163   0.05062  -0.49765   0.05062  -0.49765   0.04690  -0.42909   0.04690  -0.42909
  0.70175   0.05649  -0.49482   0.05649  -0.49482   0.03829  -0.42717   0.03829  -0.42717
  0.75188   0.07358  -0.49113   0.07358  -0.49113   0.03718  -0.42531   0.03718  -0.42531
  0.80201   0.09407  -0.48642   0.09407  -0.48642   0.04483  -0.42306   0.04483  -0.42306
  0.85213   0.10572  -0.48112   0.10572  -0.48112   0.05567  -0.42027   0.05567  -0.42027
  0.90226   0.10523  -0.47584   0.10523  -0.47584   0.06231  -0.41715   0.06231  -0.41715
  0.95238   0.09944  -0.47086   0.09944  -0.47086   0.06535  -0.41387   0.06535  -0.41387
  1.00251   0.09411  -0.46614   0.09411  -0.46614   0.06988  -0.41037   0.06988  -0.41037
  1.05263   0.09321  -0.46147   0.09321  -0.46147   0.07454  -0.40663   0.07454  -0.40663
  1.10276   0.09753  -0.45658   0.09753  -0.45658   0.07510  -0.40287   0.07510  -0.40287
  1.15288   0.10057  -0.45154   0.10057  -0.45154   0.07425  -0.39915   0.07425  -0.39915
  1.20301   0.09713  -0.44667   0.09713  -0.44667   0.07729  -0.39527   0.07729  -0.39527
  1.25313   0.08793  -0.44226   0.08793  -0.44226   0.08306  -0.39111   0.08306  -0.39111
  1.30326   0.08160  -0.43817   0.08160  -0.43817   0.08754  -0.38672   0.08754  -0.38672
  1.35338   0.09401  -0.43346   0.09401  -0.43346   0.09224  -0.38210   0.09224  -0.38210
  1.40351   0.12478  -0.42721   0.12478  -0.42721   0.09683  -0.37724   0.09683  -0.37724
  1.45363   0.14835  -0.41977   0.14835  -0.41977   0.09331  -0.37257   0.09331  -0.37257
  1.50376   0.14865  -0.41232   0.14865  -0.41232   0.08013  -0.36855   0.08013  -0.36855
  1.55388   0.13704  -0.40545   0.13704  -0.40545   0.06963  -0.36506   0.06963  -0.36506
  1.60401   0.12726  -0.39907   0.12726  -0.39907   0.07447  -0.36133   0.07447  -0.36133
  1.65414   0.12032  -0.39304   0.12032  -0.39304   0.09368  -0.35663   0.09368  -0.35663
  1.70426   0.11381  -0.38733   0.11381  -0.38733   0.11262  -0.35099   0.11262  -0.35099
  1.75439   0.10683  -0.38198   0.10683  -0.38198   0.11693  -0.34512   0.11693  -0.34512
  1.80451   0.09756  -0.37709   0.09756  -0.37709   0.10852  -0.33968   0.10852  -0.33968
  1.85464   0.08409  -0.37287   0.08409  -0.37287   0.10009  -0.33467   0.10009  -0.33467
  1.90476   0.06992  -0.36937   0.06992  -0.36937   0.09738  -0.32979   0.09738  -0.32979
  1.95489   0.06649  -0.36604   0.06649  -0.36604   0.09660  -0.32494   0.09660  -0.32494
  2.00501   0.08213  -0.36192   0.08213  -0.36192   0.09281  -0.32029   0.09281  -0.32029
  2.05514   0.10984  -0.35641   0.10984  -0.35641   0.08390  -0.31609   0.08390  -0.31609
  2.10526   0.13207  -0.34979   0.13207  -0.34979   0.07109  -0.31252   0.07109  -0.31252
  2.15539   0.13803  -0.34288   0.13803  -0.34288   0.06039  -0.30950   0.06039  -0.30950
  2.20551   0.13353  -0.33618   0.13353  -0.33618   0.05682  -0.30665   0.05682  -0.30665
  2.25564   0.12993  -0.32967   0.12993  -0.32967   0.05715  -0.30378   0.05715  -0.30378
  2.30576   0.12958  -0.32317   0.12958  -0.32317   0.05834  -0.30086   0.05834  -0.30086
  2.35589   0.12716  -0.31680   0.12716  -0.31680   0.06445  -0.29763   0.06445  -0.29763
  2.40602   0.11962  -0.31080   0.11962  -0.31080   0.07605  -0.29382   0.07605  -0.29382
  2.45614   0.11118  -0.30523   0.11118  -0.30523   0.08685  -0.28946   0.08685  -0.28946
  2.50627   0.10838  -0.29980   0.10838  -0.29980   0.09370  -0.28477   0.09370  -0.28477
  2.55639   0.11142  -0.29421   0.11142  -0.29421   0.09640  -0.27993   0.09640  -0.27993
  2.60652   0.11604  -0.28840   0.11604  -0.28840   0.09312  -0.27527   0.09312  -0.27527
  2.65664   0.11967  -0.28240   0.11967  -0.28240   0.08557  -0.27098   0.08557  -0.27098
  2.70677   0.12198  -0.27628   0.12198  -0.27628   0.08137  -0.26690   0.08137  -0.26690
  2.75689   0.12634  -0.26995   0.12634  -0.26995   0.08589  -0.26259   0.08589  -0.26259
  2.80702   0.13750  -0.26306   0.13750  -0.26306   0.09389  -0.25789   0.09389  -0.25789
  2.85714   0.15254  -0.25541   0.15254  -0.25541   0.09510  -0.25312   0.09510  -0.25312
  2.90727   0.16135  -0.24732   0.16135  -0.24732   0.08809  -0.24870   0.08809  -0.24870
  2.95739   0.15526  -0.23954   0.15526  -0.23954   0.08206  -0.24459   0.08206  -0.24459
  3.00752   0.13251  -0.23290   0.13251  -0.23290   0.08528  -0.24032   0.08528  -0.24032
  3.05764   0.10365  -0.22771   0.10365  -0.22771   0.09633  -0.23549   0.09633  -0.23549
  3.10777   0.08411  -0.22349   0.08411  -0.22349   0.10617  -0.23017   0.10617  -0.23017
  3.15789   0.07853  -0.21955   0.07853  -0.21955   0.10674  -0.22482   0.10674  -0.22482
  3.20802   0.08238  -0.21542   0.08238  -0.21542   0.10052  -0.21978   0.10052  -0.21978
  3.25815   0.08962  -0.21093   0.08962  -0.21093   0.09627  -0.21495   0.09627  -0.21495
  3.30827   0.09536  -0.20615   0.09536  -0.20615   0.09486  -0.21020   0.09486  -0.21020
  3.35840   0.09956  -0.20116   0.09956  -0.20116   0.09149  -0.20561   0.09149  -0.20561
  3.40852   0.10485  -0.19591   0.10485  -0.19591   0.08737  -0.20123   0.08737  -0.20123
  3.45865   0.10814  -0.19048   0.10814  -0.19048   0.08874  -0.19678   0.08874  -0.19678
  3.50877   0.10218  -0.18536   0.10218  -0.18536   0.09620  -0.19196   0.09620  -0.19196
  3.55890   0.08696  -0.18100   0.08696  -0.18100   0.10246  -0.18683   0.10246  -0.18683
  3.60902   0.07119  -0.17744   0.07119  -0.17744   0.10112  -0.18176   0.10112  -0.18176
  3.65915   0.06309  -0.17427   0.06309  -0.17427   0.09172  -0.17716   0.09172  -0.17716
  3.70927   0.06409  -0.17106   0.06409  -0.17106   0.07920  -0.17319   0.07920  -0.17319
  3.75940   0.07269  -0.16742   0.07269  -0.16742   0.07022  -0.16967   0.07022  -0.16967
  3.80952   0.08776  -0.16302   0.08776  -0.16302   0.06746  -0.16629   0.06746  -0.16629
  3.85965   0.10499  -0.15776   0.10499  -0.15776   0.07067  -0.16275   0.07067  -0.16275
  3.90977   0.12289  -0.15160   0.12289  -0.15160   0.08229  -0.15862   0.08229  -0.15862
  3.95990   0.14496  -0.14433   0.14496  -0.14433   0.10607  -0.15330   0.10607  -0.15330
  4.01003   0.16658  -0.13598   0.16658  -0.13598   0.13585  -0.14649   0.13585  -0.14649
  4.06015   0.17648  -0.12713   0.17648  -0.12713   0.15330  -0.13881   0.15330  -0.13881
  4.11028   0.17335  -0.11844   0.17335  -0.11844   0.14972  -0.13131   0.14972  -0.13131
  4.16040   0.16397  -0.11023   0.16397  -0.11023   0.13826  -0.12438   0.13826  -0.12438
  4.21053   0.15187  -0.10261   0.15187  -0.10261   0.13045  -0.11784   0.13045  -0.11784
  4.26065   0.13858  -0.09567   0.13858  -0.09567   0.12500  -0.11157   0.12500  -0.11157
  4.31078   0.12490  -0.08941   0.12490  -0.08941   0.12162  -0.10547   0.12162  -0.10547
  4.36090   0.11212  -0.08379   0.11212  -0.08379   0.12288  -0.09932   0.12288  -0.09932
  4.41103   0.10582  -0.07848   0.10582  -0.07848   0.12801  -0.09290   0.12801  -0.09290
  4.46115   0.11033  -0.07295   0.11033  -0.07295   0.13372  -0.08620   0.13372  -0.08620
  4.51128   0.11896  -0.06699   0.11896  -0.06699   0.13598  -0.07938   0.13598  -0.07938
  4.56140   0.11894  -0.06103   0.11894  -0.06103   0.12985  -0.07287   0.12985  -0.07287
  4.61153   0.10544  -0.05574   0.10544  -0.05574   0.11790  -0.06696   0.11790  -0.06696
  4.66165   0.08609  -0.05143   0.08609  -0.05143   0.11327  -0.06128   0.11327  -0.06128
  4.71178   0.07251  -0.04779   0.07251  -0.04779   0.12182  -0.05518   0.12182  -0.05518
  4.76190   0.06975  -0.04429   0.06975  -0.04429   0.13164  -0.04858   0.13164  -0.04858
  4.81203   0.07298  -0.04064   0.07298  -0.04064   0.12924  -0.04210   0.12924  -0.04210
  4.86216   0.07541  -0.03686   0.07541  -0.03686   0.11555  -0.03631   0.11555  -0.03631
  4.91228   0.07865  -0.03291   0.07865  -0.03291   0.09772  -0.03141   0.09772  -0.03141
  4.96241   0.08601  -0.02860   0.08601  -0.02860   0.07880  -0.02746   0.07880  -0.02746
  5.01253   0.09354  -0.02391   0.09354  -0.02391   0.06395  -0.02426   0.06395  -0.02426
  5.06266   0.09424  -0.01919   0.09424  -0.01919   0.05986  -0.02125   0.05986  -0.02125
  5.11278   0.08378  -0.01499   0.08378  -0.01499   0.06351  -0.01807   0.06351  -0.01807
  5.16291   0.06651  -0.01166   0.06651  -0.01166   0.06536  -0.01480   0.06536  -0.01480
  5.21303   0.05333  -0.00898   0.05333  -0.00898   0.05981  -0.01180   0.05981  -0.01180
  5.26316   0.04738  -0.00661   0.04738  -0.00661   0.04706  -0.00944   0.04706  -0.00944
  5.31328   0.04237  -0.00448   0.04237  -0.00448   0.03342  -0.00776   0.03342  -0.00776
  5.36341   0.03433  -0.00276   0.03433  -0.00276   0.02674  -0.00642   0.02674  -0.00642
  5.41353   0.02411  -0.00156   0.02411  -0.00156   0.02583  -0.00513   0.02583  -0.00513
  5.46366   0.01414  -0.00085   0.01414  -0.00085   0.02337  -0.00396   0.02337  -0.00396
  5.51378   0.00710  -0.00049   0.00710  -0.00049   0.01759  -0.00308   0.01759  -0.00308
  5.56391   0.00387  -0.00030   0.00387  -0.00030   0.01154  -0.00250   0.01154  -0.00250
  5.61404   0.00280  -0.00016   0.00280  -0.00016   0.00717  -0.00214   0.00717  -0.00214
  5.66416   0.00192  -0.00006   0.00192  -0.00006   0.00554  -0.00186   0.00554  -0.00186
  5.71429   0.00090  -0.00001   0.00090  -0.00001   0.00678  -0.00152   0.00678  -0.00152
  5.76441   0.00025  -0.00000   0.00025  -0.00000   0.00899  -0.00107   0.00899  -0.00107
  5.81454   0.00004  -0.00000   0.00004  -0.00000   0.00933  -0.00060   0.00933  -0.00060
  5.86466   0.00000   0.00000   0.00000   0.00000   0.00682  -0.00026   0.00682  -0.00026
  5.91479  -0.00000   0.00000  -0.00000   0.00000   0.00342  -0.00009   0.00342  -0.00009
  5.96491  -0.00000   0.00000  -0.00000   0.00000   0.00123  -0.00003   0.00123  -0.00003
  6.01504  -0.00000  -0.00000  -0.00000  -0.00000   0.00038  -0.00001   0.00038  -0.00001
  6.06516  -0.00000  -0.00000  -0.00000  -0.00000   0.00012  -0.00000   0.00012  -0.00000
  6.11529  -0.00000  -0.00000  -0.00000  -0.00000   0.00004  -0.00000   0.00004  -0.00000
  6.16541  -0.00000  -0.00000  -0.00000  -0.00000   0.00001  -0.00000   0.00001  -0.00000
  6.21554   0.00000  -0.00000   0.00000  -0.00000   0.00000  -0.00000   0.00000  -0.00000
  6.26566   0.00000  -0.00000   0.00000  -0.00000   0.00000  -0.00000   0.00000  -0.00000
  6.31579   0.00000  -0.00000   0.00000  -0.00000   0.00000  -0.00000   0.00000  -0.00000
  6.36591   0.00000  -0.00000   0.00000  -0.00000   0.00000  -0.00000   0.00000  -0.00000
  6.41604   0.00000  -0.00000   0.00000  -0.00000   0.00000  -0.00000   0.00000  -0.00000
  6.46617   0.00000  -0.00000   0.00000  -0.00000   0.00000  -0.00000   0.00000  -0.00000