ESCALE ; pCOHP file generated by LOBSTER. Energy is shifted such that the Fermi level lies at 0 eV.
        10          2        401  -8.30197e+00   1.17482e+01   1.72310e+00 
Average
No.1:N38->N37(1.32338937972787)
No.2:Mn7->N37(1.9925696058548641)
No.3:Mo16->N37(3.2258698985630563)
No.4:Mo25->N37(2.0428724943469923)
No.5:Mo26->N37(2.2014681196963801)
No.6:Mn7->N38(2.092088574632025)
No.7:Mo16->N38(2.0877725401611174)
No.8:Mo25->N38(3.2416863715226261)
No.9:Mo26->N38(2.1343875611358736)
-10.02506   0.00000  -1.02024   0.00000  -4.95666   0.00000  -0.46407   0.00000  -0.00683   0.00000  -1.10214   0.00000  -0.60423   0.00000  -0.34367   0.00000  -0.95751   0.00000  -0.00665   0.00000  -0.74038   0.00000  -1.02549   0.00000  -4.99969   0.00000  -0.46142   0.00000  -0.00632   0.00000  -1.10806   0.00000  -0.60444   0.00000  -0.34047   0.00000  -0.96274   0.00000  -0.00615   0.00000  -0.74011
 -9.97494   0.00000  -1.02024   0.00000  -4.95666   0.00000  -0.46407   0.00000  -0.00683   0.00000  -1.10214   0.00000  -0.60423   0.00000  -0.34367   0.00000  -0.95751   0.00000  -0.00665   0.00000  -0.74038   0.00000  -1.02549   0.00000  -4.99969   0.00000  -0.46142   0.00000  -0.00632   0.00000  -1.10806   0.00000  -0.60444   0.00000  -0.34047   0.00000  -0.96274   0.00000  -0.00615   0.00000  -0.74011
 -9.92481   0.00000  -1.02024   0.00000  -4.95666   0.00000  -0.46407   0.00000  -0.00683   0.00000  -1.10214   0.00000  -0.60423   0.00000  -0.34367   0.00000  -0.95751   0.00000  -0.00665   0.00000  -0.74038   0.00000  -1.02549   0.00000  -4.99969   0.00000  -0.46142   0.00000  -0.00632   0.00000  -1.10806   0.00000  -0.60444   0.00000  -0.34047   0.00000  -0.96274   0.00000  -0.00615   0.00000  -0.74011
 -9.87469   0.00000  -1.02024   0.00000  -4.95666   0.00000  -0.46407   0.00000  -0.00683   0.00000  -1.10214   0.00000  -0.60423   0.00000  -0.34367   0.00000  -0.95751   0.00000  -0.00665   0.00000  -0.74038   0.00000  -1.02549   0.00000  -4.99969   0.00000  -0.46142   0.00000  -0.00632   0.00000  -1.10806   0.00000  -0.60444   0.00000  -0.34047   0.00000  -0.96274   0.00000  -0.00615   0.00000  -0.74011
 -9.82456   0.00000  -1.02024   0.00000  -4.95666   0.00000  -0.46407   0.00000  -0.00683   0.00000  -1.10214   0.00000  -0.60423   0.00000  -0.34367   0.00000  -0.95751   0.00000  -0.00665   0.00000  -0.74038   0.00000  -1.02549   0.00000  -4.99969   0.00000  -0.46142   0.00000  -0.00632   0.00000  -1.10806   0.00000  -0.60444   0.00000  -0.34047   0.00000  -0.96274   0.00000  -0.00615   0.00000  -0.74011
 -9.77444   0.00000  -1.02024   0.00000  -4.95666   0.00000  -0.46407   0.00000  -0.00683   0.00000  -1.10214   0.00000  -0.60423   0.00000  -0.34367   0.00000  -0.95751   0.00000  -0.00665   0.00000  -0.74038   0.00000  -1.02549   0.00000  -4.99969   0.00000  -0.46142   0.00000  -0.00632   0.00000  -1.10806   0.00000  -0.60444   0.00000  -0.34047   0.00000  -0.96274   0.00000  -0.00615   0.00000  -0.74011
 -9.72431   0.00000  -1.02024   0.00000  -4.95666   0.00000  -0.46407   0.00000  -0.00683   0.00000  -1.10214   0.00000  -0.60423   0.00000  -0.34367   0.00000  -0.95751   0.00000  -0.00665   0.00000  -0.74038   0.00000  -1.02549   0.00000  -4.99969   0.00000  -0.46142   0.00000  -0.00632   0.00000  -1.10806   0.00000  -0.60444   0.00000  -0.34047   0.00000  -0.96274   0.00000  -0.00615   0.00000  -0.74011
 -9.67419   0.00000  -1.02024   0.00000  -4.95666   0.00000  -0.46407   0.00000  -0.00683   0.00000  -1.10214   0.00000  -0.60423   0.00000  -0.34367   0.00000  -0.95751   0.00000  -0.00665   0.00000  -0.74038   0.00000  -1.02549   0.00000  -4.99969   0.00000  -0.46142   0.00000  -0.00632   0.00000  -1.10806   0.00000  -0.60444   0.00000  -0.34047   0.00000  -0.96274   0.00000  -0.00615   0.00000  -0.74011
 -9.62406   0.00000  -1.02024   0.00000  -4.95666   0.00000  -0.46407   0.00000  -0.00683   0.00000  -1.10214   0.00000  -0.60423   0.00000  -0.34367   0.00000  -0.95751   0.00000  -0.00665   0.00000  -0.74038   0.00000  -1.02549   0.00000  -4.99969   0.00000  -0.46142   0.00000  -0.00632   0.00000  -1.10806   0.00000  -0.60444   0.00000  -0.34047   0.00000  -0.96274   0.00000  -0.00615   0.00000  -0.74011
 -9.57393   0.00000  -1.02024   0.00000  -4.95666   0.00000  -0.46407   0.00000  -0.00683   0.00000  -1.10214   0.00000  -0.60423   0.00000  -0.34367   0.00000  -0.95751   0.00000  -0.00665   0.00000  -0.74038   0.00000  -1.02549   0.00000  -4.99969   0.00000  -0.46142   0.00000  -0.00632   0.00000  -1.10806   0.00000  -0.60444   0.00000  -0.34047   0.00000  -0.96274   0.00000  -0.00615   0.00000  -0.74011
 -9.52381   0.00000  -1.02024   0.00000  -4.95666   0.00000  -0.46407   0.00000  -0.00683   0.00000  -1.10214   0.00000  -0.60423   0.00000  -0.34367   0.00000  -0.95751   0.00000  -0.00665   0.00000  -0.74038   0.00000  -1.02549   0.00000  -4.99969   0.00000  -0.46142   0.00000  -0.00632   0.00000  -1.10806   0.00000  -0.60444   0.00000  -0.34047   0.00000  -0.96274   0.00000  -0.00615   0.00000  -0.74011
 -9.47368   0.00000  -1.02024   0.00000  -4.95666   0.00000  -0.46407   0.00000  -0.00683   0.00000  -1.10214   0.00000  -0.60423   0.00000  -0.34367   0.00000  -0.95751   0.00000  -0.00665   0.00000  -0.74038   0.00000  -1.02549   0.00000  -4.99969   0.00000  -0.46142   0.00000  -0.00632   0.00000  -1.10806   0.00000  -0.60444   0.00000  -0.34047   0.00000  -0.96274   0.00000  -0.00615   0.00000  -0.74011
 -9.42356   0.00000  -1.02024   0.00000  -4.95666   0.00000  -0.46407   0.00000  -0.00683   0.00000  -1.10214   0.00000  -0.60423   0.00000  -0.34367   0.00000  -0.95751   0.00000  -0.00665   0.00000  -0.74038   0.00000  -1.02549   0.00000  -4.99969   0.00000  -0.46142   0.00000  -0.00632   0.00000  -1.10806   0.00000  -0.60444   0.00000  -0.34047   0.00000  -0.96274   0.00000  -0.00615   0.00000  -0.74011
 -9.37343   0.00000  -1.02024   0.00000  -4.95666   0.00000  -0.46407   0.00000  -0.00683   0.00000  -1.10214   0.00000  -0.60423   0.00000  -0.34367   0.00000  -0.95751   0.00000  -0.00665   0.00000  -0.74038   0.00000  -1.02549   0.00000  -4.99969   0.00000  -0.46142   0.00000  -0.00632   0.00000  -1.10806   0.00000  -0.60444   0.00000  -0.34047   0.00000  -0.96274   0.00000  -0.00615   0.00000  -0.74011
 -9.32331   0.00000  -1.02024   0.00000  -4.95666   0.00000  -0.46407   0.00000  -0.00683   0.00000  -1.10214   0.00000  -0.60423   0.00000  -0.34367   0.00000  -0.95751   0.00000  -0.00665   0.00000  -0.74038   0.00000  -1.02549   0.00000  -4.99969   0.00000  -0.46142   0.00000  -0.00632   0.00000  -1.10806   0.00000  -0.60444   0.00000  -0.34047   0.00000  -0.96274   0.00000  -0.00615   0.00000  -0.74011
 -9.27318   0.00000  -1.02024   0.00000  -4.95666   0.00000  -0.46407   0.00000  -0.00683   0.00000  -1.10214   0.00000  -0.60423   0.00000  -0.34367   0.00000  -0.95751   0.00000  -0.00665   0.00000  -0.74038   0.00000  -1.02549   0.00000  -4.99969   0.00000  -0.46142   0.00000  -0.00632   0.00000  -1.10806   0.00000  -0.60444   0.00000  -0.34047   0.00000  -0.96274   0.00000  -0.00615   0.00000  -0.74011
 -9.22306   0.00000  -1.02024   0.00000  -4.95666   0.00000  -0.46407   0.00000  -0.00683   0.00000  -1.10214   0.00000  -0.60423   0.00000  -0.34367   0.00000  -0.95751   0.00000  -0.00665   0.00000  -0.74038   0.00000  -1.02549   0.00000  -4.99969   0.00000  -0.46142   0.00000  -0.00632   0.00000  -1.10806   0.00000  -0.60444   0.00000  -0.34047   0.00000  -0.96274   0.00000  -0.00615   0.00000  -0.74011
 -9.17293   0.00000  -1.02024   0.00000  -4.95666   0.00000  -0.46407   0.00000  -0.00683   0.00000  -1.10214   0.00000  -0.60423   0.00000  -0.34367   0.00000  -0.95751   0.00000  -0.00665   0.00000  -0.74038   0.00000  -1.02549   0.00000  -4.99969   0.00000  -0.46142   0.00000  -0.00632   0.00000  -1.10806   0.00000  -0.60444   0.00000  -0.34047   0.00000  -0.96274   0.00000  -0.00615   0.00000  -0.74011
 -9.12281   0.00000  -1.02024   0.00000  -4.95666   0.00000  -0.46407   0.00000  -0.00683   0.00000  -1.10214   0.00000  -0.60423   0.00000  -0.34367   0.00000  -0.95751   0.00000  -0.00665   0.00000  -0.74038   0.00000  -1.02549   0.00000  -4.99969   0.00000  -0.46142   0.00000  -0.00632   0.00000  -1.10806   0.00000  -0.60444   0.00000  -0.34047   0.00000  -0.96274   0.00000  -0.00615   0.00000  -0.74011
 -9.07268   0.00000  -1.02024   0.00000  -4.95666   0.00000  -0.46407   0.00000  -0.00683   0.00000  -1.10214   0.00000  -0.60423   0.00000  -0.34367   0.00000  -0.95751   0.00000  -0.00665   0.00000  -0.74038   0.00000  -1.02549   0.00000  -4.99969   0.00000  -0.46142   0.00000  -0.00632   0.00000  -1.10806   0.00000  -0.60444   0.00000  -0.34047   0.00000  -0.96274   0.00000  -0.00615   0.00000  -0.74011
 -9.02256   0.00000  -1.02024   0.00000  -4.95666   0.00000  -0.46407   0.00000  -0.00683   0.00000  -1.10214   0.00000  -0.60423   0.00000  -0.34367   0.00000  -0.95751   0.00000  -0.00665   0.00000  -0.74038   0.00000  -1.02549   0.00000  -4.99969   0.00000  -0.46142   0.00000  -0.00632   0.00000  -1.10806   0.00000  -0.60444   0.00000  -0.34047   0.00000  -0.96274   0.00000  -0.00615   0.00000  -0.74011
 -8.97243   0.00000  -1.02024   0.00000  -4.95666   0.00000  -0.46407   0.00000  -0.00683   0.00000  -1.10214   0.00000  -0.60423   0.00000  -0.34367   0.00000  -0.95751   0.00000  -0.00665   0.00000  -0.74038   0.00000  -1.02549   0.00000  -4.99969   0.00000  -0.46142   0.00000  -0.00632   0.00000  -1.10806   0.00000  -0.60444   0.00000  -0.34047   0.00000  -0.96274   0.00000  -0.00615   0.00000  -0.74011
 -8.92231   0.00000  -1.02024   0.00000  -4.95666   0.00000  -0.46407   0.00000  -0.00683   0.00000  -1.10214   0.00000  -0.60423   0.00000  -0.34367   0.00000  -0.95751   0.00000  -0.00665   0.00000  -0.74038   0.00000  -1.02549   0.00000  -4.99969   0.00000  -0.46142   0.00000  -0.00632   0.00000  -1.10806   0.00000  -0.60444   0.00000  -0.34047   0.00000  -0.96274   0.00000  -0.00615   0.00000  -0.74011
 -8.87218   0.00000  -1.02024   0.00000  -4.95666   0.00000  -0.46407   0.00000  -0.00683   0.00000  -1.10214   0.00000  -0.60423   0.00000  -0.34367   0.00000  -0.95751   0.00000  -0.00665   0.00000  -0.74038   0.00000  -1.02549   0.00000  -4.99969   0.00000  -0.46142   0.00000  -0.00632   0.00000  -1.10806   0.00000  -0.60444   0.00000  -0.34047   0.00000  -0.96274   0.00000  -0.00615   0.00000  -0.74011
 -8.82206   0.00000  -1.02024   0.00000  -4.95666   0.00000  -0.46407   0.00000  -0.00683   0.00000  -1.10214   0.00000  -0.60423   0.00000  -0.34367   0.00000  -0.95751   0.00000  -0.00665   0.00000  -0.74038   0.00000  -1.02549   0.00000  -4.99969   0.00000  -0.46142   0.00000  -0.00632   0.00000  -1.10806   0.00000  -0.60444   0.00000  -0.34047   0.00000  -0.96274   0.00000  -0.00615   0.00000  -0.74011
 -8.77193   0.00000  -1.02024   0.00000  -4.95666   0.00000  -0.46407   0.00000  -0.00683   0.00000  -1.10214   0.00000  -0.60423   0.00000  -0.34367   0.00000  -0.95751   0.00000  -0.00665   0.00000  -0.74038   0.00000  -1.02549   0.00000  -4.99969   0.00000  -0.46142   0.00000  -0.00632   0.00000  -1.10806   0.00000  -0.60444   0.00000  -0.34047   0.00000  -0.96274   0.00000  -0.00615   0.00000  -0.74011
 -8.72180   0.00000  -1.02024   0.00000  -4.95666   0.00000  -0.46407   0.00000  -0.00683   0.00000  -1.10214   0.00000  -0.60423   0.00000  -0.34367   0.00000  -0.95751   0.00000  -0.00665   0.00000  -0.74038   0.00000  -1.02549   0.00000  -4.99969   0.00000  -0.46142   0.00000  -0.00632   0.00000  -1.10806   0.00000  -0.60444   0.00000  -0.34047   0.00000  -0.96274   0.00000  -0.00615   0.00000  -0.74011
 -8.67168   0.00000  -1.02024   0.00000  -4.95666   0.00000  -0.46407   0.00000  -0.00683   0.00000  -1.10214   0.00000  -0.60423   0.00000  -0.34367   0.00000  -0.95751   0.00000  -0.00665   0.00000  -0.74038   0.00000  -1.02549   0.00000  -4.99969   0.00000  -0.46142   0.00000  -0.00632   0.00000  -1.10806   0.00000  -0.60444   0.00000  -0.34047   0.00000  -0.96274   0.00000  -0.00615   0.00000  -0.74011
 -8.62155   0.00000  -1.02024   0.00000  -4.95666   0.00000  -0.46407   0.00000  -0.00683   0.00000  -1.10214   0.00000  -0.60423   0.00000  -0.34367   0.00000  -0.95751   0.00000  -0.00665   0.00000  -0.74038   0.00000  -1.02549   0.00000  -4.99969   0.00000  -0.46142   0.00000  -0.00632   0.00000  -1.10806   0.00000  -0.60444   0.00000  -0.34047   0.00000  -0.96274   0.00000  -0.00615   0.00000  -0.74011
 -8.57143  -0.00000  -1.02024  -0.00000  -4.95666   0.00000  -0.46407   0.00000  -0.00683   0.00000  -1.10214  -0.00000  -0.60423  -0.00000  -0.34367  -0.00000  -0.95751   0.00000  -0.00665  -0.00000  -0.74038   0.00000  -1.02549   0.00000  -4.99969   0.00000  -0.46142   0.00000  -0.00632   0.00000  -1.10806   0.00000  -0.60444   0.00000  -0.34047   0.00000  -0.96274   0.00000  -0.00615   0.00000  -0.74011
 -8.52130  -0.00000  -1.02024  -0.00000  -4.95666  -0.00000  -0.46407   0.00000  -0.00683  -0.00000  -1.10214  -0.00000  -0.60423  -0.00000  -0.34367  -0.00000  -0.95751   0.00000  -0.00665  -0.00000  -0.74038  -0.00000  -1.02549  -0.00000  -4.99969   0.00000  -0.46142   0.00000  -0.00632  -0.00000  -1.10806  -0.00000  -0.60444  -0.00000  -0.34047  -0.00000  -0.96274   0.00000  -0.00615  -0.00000  -0.74011
 -8.47118  -0.00000  -1.02024  -0.00000  -4.95666  -0.00000  -0.46407   0.00000  -0.00683  -0.00000  -1.10214  -0.00000  -0.60423  -0.00000  -0.34367  -0.00000  -0.95751   0.00000  -0.00665  -0.00000  -0.74038  -0.00000  -1.02549  -0.00000  -4.99969  -0.00000  -0.46142   0.00000  -0.00632  -0.00000  -1.10806  -0.00000  -0.60444  -0.00000  -0.34047  -0.00000  -0.96274   0.00000  -0.00615  -0.00000  -0.74011
 -8.42105  -0.00000  -1.02024  -0.00000  -4.95666  -0.00000  -0.46407   0.00000  -0.00683  -0.00000  -1.10214  -0.00000  -0.60423  -0.00000  -0.34367  -0.00000  -0.95751   0.00000  -0.00665  -0.00000  -0.74038  -0.00000  -1.02549  -0.00000  -4.99969  -0.00000  -0.46142   0.00000  -0.00632  -0.00000  -1.10806  -0.00000  -0.60444  -0.00000  -0.34047  -0.00000  -0.96274   0.00000  -0.00615  -0.00000  -0.74011
 -8.37093  -0.00000  -1.02024  -0.00000  -4.95666  -0.00000  -0.46407   0.00000  -0.00683  -0.00000  -1.10214  -0.00000  -0.60423  -0.00000  -0.34367  -0.00000  -0.95751   0.00000  -0.00665  -0.00000  -0.74038  -0.00000  -1.02549  -0.00000  -4.99969  -0.00000  -0.46142   0.00000  -0.00632  -0.00000  -1.10806  -0.00000  -0.60444  -0.00000  -0.34047  -0.00000  -0.96274   0.00000  -0.00615  -0.00000  -0.74011
 -8.32080  -0.00000  -1.02024  -0.00000  -4.95666  -0.00000  -0.46407   0.00000  -0.00683  -0.00000  -1.10214  -0.00000  -0.60423  -0.00000  -0.34367  -0.00000  -0.95751   0.00000  -0.00665  -0.00000  -0.74038  -0.00000  -1.02549  -0.00000  -4.99969  -0.00000  -0.46142   0.00000  -0.00632  -0.00000  -1.10806  -0.00000  -0.60444  -0.00000  -0.34047  -0.00000  -0.96274   0.00000  -0.00615  -0.00000  -0.74011
 -8.27068  -0.00001  -1.02024  -0.00003  -4.95666  -0.00001  -0.46407   0.00000  -0.00683  -0.00001  -1.10214  -0.00000  -0.60423  -0.00000  -0.34367  -0.00001  -0.95751   0.00000  -0.00665  -0.00001  -0.74038  -0.00000  -1.02549  -0.00000  -4.99969  -0.00000  -0.46142   0.00000  -0.00632  -0.00000  -1.10806  -0.00000  -0.60444  -0.00000  -0.34047  -0.00000  -0.96274   0.00000  -0.00615  -0.00000  -0.74011
 -8.22055  -0.00015  -1.02025  -0.00056  -4.95669  -0.00009  -0.46407   0.00001  -0.00683  -0.00023  -1.10215  -0.00005  -0.60423  -0.00006  -0.34367  -0.00025  -0.95752   0.00002  -0.00665  -0.00010  -0.74038  -0.00002  -1.02549  -0.00007  -4.99969  -0.00001  -0.46142   0.00000  -0.00632  -0.00003  -1.10806  -0.00001  -0.60444  -0.00001  -0.34047  -0.00003  -0.96274   0.00000  -0.00615  -0.00001  -0.74011
 -8.17043  -0.00163  -1.02033  -0.00628  -4.95701  -0.00099  -0.46412   0.00015  -0.00682  -0.00256  -1.10228  -0.00060  -0.60426  -0.00068  -0.34371  -0.00282  -0.95766   0.00022  -0.00664  -0.00110  -0.74044  -0.00028  -1.02550  -0.00107  -4.99974  -0.00015  -0.46143   0.00003  -0.00632  -0.00048  -1.10809  -0.00010  -0.60445  -0.00011  -0.34048  -0.00052  -0.96276   0.00004  -0.00615  -0.00019  -0.74012
 -8.12030  -0.01188  -1.02092  -0.04578  -4.95930  -0.00720  -0.46448   0.00109  -0.00677  -0.01871  -1.10322  -0.00438  -0.60448  -0.00496  -0.34396  -0.02060  -0.95870   0.00161  -0.00656  -0.00800  -0.74084  -0.00288  -1.02565  -0.01086  -5.00029  -0.00154  -0.46151   0.00027  -0.00631  -0.00484  -1.10833  -0.00103  -0.60450  -0.00111  -0.34053  -0.00529  -0.96303   0.00039  -0.00613  -0.00193  -0.74022
 -8.07018  -0.05811  -1.02384  -0.22366  -4.97051  -0.03531  -0.46625   0.00522  -0.00651  -0.09152  -1.10781  -0.02136  -0.60555  -0.02428  -0.34517  -0.10085  -0.96375   0.00773  -0.00617  -0.03900  -0.74279  -0.01925  -1.02661  -0.07245  -5.00392  -0.01029  -0.46202   0.00176  -0.00622  -0.03235  -1.10995  -0.00687  -0.60484  -0.00741  -0.34090  -0.03539  -0.96480   0.00260  -0.00600  -0.01288  -0.74087
 -8.02005  -0.19670  -1.03370  -0.75604  -5.00841  -0.11987  -0.47226   0.01726  -0.00564  -0.30986  -1.12334  -0.07204  -0.60917  -0.08221  -0.34929  -0.34174  -0.98088   0.02556  -0.00489  -0.13136  -0.74938  -0.08660  -1.03095  -0.32547  -5.02024  -0.04633  -0.46435   0.00779  -0.00583  -0.14559  -1.11725  -0.03077  -0.60638  -0.03332  -0.34257  -0.15943  -0.97279   0.01148  -0.00542  -0.05772  -0.74376
 -7.96992  -0.47393  -1.05745  -1.81908  -5.09959  -0.28991  -0.48679   0.04037  -0.00362  -0.74671  -1.16077  -0.17287  -0.61783  -0.19817  -0.35923  -0.82431  -1.02220   0.05995  -0.00188  -0.31467  -0.76515  -0.26978  -1.04448  -1.01247  -5.07099  -0.14464  -0.47160   0.02371  -0.00464  -0.45396  -1.14001  -0.09539  -0.61117  -0.10379  -0.34778  -0.49756  -0.99773   0.03497  -0.00367  -0.17894  -0.75273
 -7.91980  -0.81984  -1.09855  -3.14300  -5.25714  -0.50347  -0.51203   0.06772  -0.00022  -1.29158  -1.22551  -0.29789  -0.63276  -0.34298  -0.37642  -1.42699  -1.09373   0.10093   0.00317  -0.54132  -0.79228  -0.59342  -1.07422  -2.22372  -5.18245  -0.31892  -0.48758   0.05074  -0.00210  -0.99930  -1.19010  -0.20875  -0.62163  -0.22823  -0.35922  -1.09613  -1.05268   0.07501   0.00009  -0.39148  -0.77235
 -7.86967  -1.00154  -1.14875  -3.83653  -5.44944  -0.61721  -0.54297   0.08053   0.00381  -1.57714  -1.30456  -0.36280  -0.65095  -0.41922  -0.39743  -1.74358  -1.18113   0.12049   0.00921  -0.65838  -0.82529  -0.92148  -1.12041  -3.44895  -5.35533  -0.49647  -0.51247   0.07668   0.00175  -1.55243  -1.26791  -0.32270  -0.63780  -0.35434  -0.37698  -1.70386  -1.13809   0.11373   0.00579  -0.60495  -0.80268
 -7.81955  -0.83797  -1.19075  -3.20878  -5.61028  -0.51787  -0.56893   0.06598   0.00712  -1.31865  -1.37066  -0.30294  -0.66613  -0.35096  -0.41502  -1.45836  -1.25423   0.09906   0.01418  -0.54922  -0.85282  -0.99127  -1.17010  -3.70744  -5.54117  -0.53531  -0.53930   0.08060   0.00579  -1.67003  -1.35162  -0.34596  -0.65515  -0.38121  -0.39609  -1.83360  -1.22999   0.11996   0.01181  -0.64840  -0.83518
 -7.76942  -0.46588  -1.21410  -1.78387  -5.69970  -0.28856  -0.58339   0.03611   0.00893  -0.73250  -1.40738  -0.16824  -0.67457  -0.19523  -0.42481  -0.81023  -1.29484   0.05440   0.01691  -0.30481  -0.86809  -0.71916  -1.20615  -2.68889  -5.67595  -0.38916  -0.55881   0.05741   0.00866  -1.21116  -1.41233  -0.25044  -0.66770  -0.27665  -0.40995  -1.32999  -1.29666   0.08574   0.01610  -0.46931  -0.85870
 -7.71930  -0.16818  -1.22253  -0.64404  -5.73198  -0.10435  -0.58862   0.01288   0.00958  -0.26418  -1.42062  -0.06070  -0.67761  -0.07051  -0.42834  -0.29221  -1.30949   0.01946   0.01788  -0.10993  -0.87360  -0.34329  -1.22336  -1.28354  -5.74029  -0.18610  -0.56813   0.02702   0.01002  -0.57779  -1.44129  -0.11939  -0.67368  -0.13212  -0.41658  -0.63447  -1.32846   0.04049   0.01813  -0.22373  -0.86992
 -7.66917  -0.03880  -1.22448  -0.14864  -5.73943  -0.02411  -0.58983   0.00295   0.00972  -0.06089  -1.42367  -0.01401  -0.67831  -0.01628  -0.42916  -0.06734  -1.31286   0.00446   0.01811  -0.02536  -0.87488  -0.10582  -1.22866  -0.39572  -5.76012  -0.05746  -0.57101   0.00824   0.01043  -0.17796  -1.45021  -0.03678  -0.67553  -0.04075  -0.41862  -0.19539  -1.33826   0.01238   0.01875  -0.06892  -0.87337
 -7.61905  -0.00582  -1.22477  -0.02245  -5.74056  -0.00366  -0.59001   0.00043   0.00975  -0.00897  -1.42412  -0.00219  -0.67842  -0.00249  -0.42928  -0.00989  -1.31336   0.00066   0.01814  -0.00385  -0.87507  -0.02079  -1.22970  -0.07778  -5.76402  -0.01131  -0.57158   0.00160   0.01051  -0.03493  -1.45196  -0.00723  -0.67589  -0.00801  -0.41902  -0.03834  -1.34018   0.00242   0.01887  -0.01354  -0.87405
 -7.56892  -0.00284  -1.22491  -0.01283  -5.74120  -0.00223  -0.59012   0.00011   0.00975  -0.00225  -1.42424  -0.00227  -0.67853  -0.00176  -0.42937  -0.00204  -1.31346   0.00019   0.01815  -0.00251  -0.87519  -0.00270  -1.22984  -0.01023  -5.76453  -0.00148  -0.57166   0.00020   0.01052  -0.00440  -1.45219  -0.00101  -0.67594  -0.00106  -0.41907  -0.00481  -1.34042   0.00031   0.01889  -0.00180  -0.87414
 -7.51880  -0.02049  -1.22594  -0.09559  -5.74599  -0.01671  -0.59096   0.00064   0.00978  -0.01260  -1.42487  -0.01841  -0.67946  -0.01358  -0.43005  -0.01000  -1.31396   0.00112   0.01820  -0.01925  -0.87616  -0.00203  -1.22994  -0.00965  -5.76502  -0.00134  -0.57172   0.00008   0.01053  -0.00149  -1.45226  -0.00177  -0.67603  -0.00110  -0.41913  -0.00127  -1.34048   0.00013   0.01890  -0.00191  -0.87423
 -7.46867  -0.11330  -1.23162  -0.52956  -5.77254  -0.09191  -0.59557   0.00359   0.00996  -0.06932  -1.42834  -0.10221  -0.68458  -0.07491  -0.43381  -0.05464  -1.31670   0.00619   0.01851  -0.10690  -0.88152  -0.01731  -1.23081  -0.08397  -5.76923  -0.01157  -0.57230   0.00060   0.01056  -0.01093  -1.45281  -0.01601  -0.67683  -0.00963  -0.41961  -0.00849  -1.34091   0.00099   0.01895  -0.01675  -0.87507
 -7.41855  -0.39625  -1.25148  -1.85443  -5.86549  -0.31961  -0.61159   0.01263   0.01060  -0.24220  -1.44048  -0.35813  -0.70253  -0.26113  -0.44690  -0.19020  -1.32623   0.02160   0.01960  -0.37476  -0.90030  -0.10148  -1.23589  -0.49263  -5.79392  -0.06770  -0.57570   0.00352   0.01073  -0.06404  -1.45602  -0.09390  -0.68154  -0.05638  -0.42244  -0.04970  -1.34340   0.00581   0.01924  -0.09827  -0.88000
 -7.36842  -0.87864  -1.29552  -4.11679  -6.07185  -0.70421  -0.64689   0.02817   0.01201  -0.53800  -1.46745  -0.79477  -0.74237  -0.57648  -0.47579  -0.42161  -1.34737   0.04782   0.02199  -0.83188  -0.94200  -0.37158  -1.25452  -1.80483  -5.88439  -0.24730  -0.58809   0.01290   0.01138  -0.23455  -1.46778  -0.34375  -0.69877  -0.20598  -0.43276  -0.18203  -1.35253   0.02126   0.02030  -0.35997  -0.89804
 -7.31830  -1.24278  -1.35782  -5.82908  -6.36403  -0.98815  -0.69642   0.04008   0.01402  -0.76568  -1.50583  -1.12367  -0.79869  -0.81032  -0.51641  -0.59989  -1.37744   0.06753   0.02538  -1.17588  -1.00094  -0.85248  -1.29725  -4.14271  -6.09204  -0.56560  -0.61644   0.02962   0.01286  -0.53883  -1.49478  -0.78815  -0.73827  -0.47113  -0.45638  -0.41839  -1.37350   0.04872   0.02275  -0.82586  -0.93944
 -7.26817  -1.13282  -1.41460  -5.31795  -6.63060  -0.89024  -0.74104   0.03675   0.01586  -0.70824  -1.54133  -1.02162  -0.84990  -0.73131  -0.55307  -0.55651  -1.40533   0.06141   0.02846  -1.06765  -1.05446  -1.23153  -1.35898  -5.98704  -6.39214  -0.81326  -0.65721   0.04281   0.01501  -0.78188  -1.53398  -1.13700  -0.79527  -0.67749  -0.49034  -0.60809  -1.40398   0.07022   0.02627  -1.19201  -0.99919
 -7.21805  -0.68025  -1.44870  -3.19511  -6.79075  -0.52339  -0.76728   0.02218   0.01697  -0.44063  -1.56342  -0.60839  -0.88040  -0.43068  -0.57466  -0.35012  -1.42288   0.03673   0.03030  -0.63286  -1.08618  -1.13059  -1.41565  -5.49598  -6.66763  -0.73985  -0.69429   0.03922   0.01698  -0.72725  -1.57043  -1.04028  -0.84741  -0.61668  -0.52125  -0.56828  -1.43246   0.06418   0.02948  -1.09042  -1.05385
 -7.16792  -0.28714  -1.46309  -1.34864  -6.85835  -0.21025  -0.77782   0.00937   0.01744  -0.20428  -1.57366  -0.24949  -0.89290  -0.17289  -0.58332  -0.16814  -1.43131   0.01535   0.03107  -0.25530  -1.09898  -0.67428  -1.44945  -3.27282  -6.83168  -0.43177  -0.71594   0.02316   0.01814  -0.45045  -1.59301  -0.61465  -0.87822  -0.36059  -0.53932  -0.35676  -1.45035   0.03785   0.03138  -0.64245  -1.08605
 -7.11779  -0.10354  -1.46828  -0.48645  -6.88274  -0.06706  -0.78118   0.00333   0.01761  -0.09071  -1.57820  -0.08208  -0.89702  -0.05434  -0.58605  -0.08039  -1.43534   0.00541   0.03134  -0.07954  -1.10297  -0.27866  -1.46342  -1.34487  -6.89909  -0.16790  -0.72435   0.00922   0.01860  -0.20740  -1.60340  -0.24653  -0.89058  -0.14088  -0.54639  -0.17047  -1.45889   0.01515   0.03214  -0.25423  -1.09879
 -7.06767  -0.04336  -1.47046  -0.20457  -6.89299  -0.02326  -0.78234   0.00134   0.01768  -0.04828  -1.58062  -0.02905  -0.89848  -0.01796  -0.58695  -0.04573  -1.43763   0.00219   0.03145  -0.02488  -1.10421  -0.09784  -1.46832  -0.46517  -6.92241  -0.04916  -0.72682   0.00283   0.01874  -0.09455  -1.60814  -0.07807  -0.89449  -0.04136  -0.54846  -0.08406  -1.46310   0.00484   0.03238  -0.07590  -1.10260
 -7.01754  -0.02239  -1.47158  -0.10644  -6.89833  -0.00996  -0.78284   0.00062   0.01771  -0.03016  -1.58214  -0.01226  -0.89909  -0.00701  -0.58730  -0.02929  -1.43910   0.00108   0.03150  -0.00806  -1.10462  -0.04440  -1.47055  -0.20746  -6.93281  -0.01534  -0.72758   0.00094   0.01879  -0.05950  -1.61113  -0.02798  -0.89589  -0.01243  -0.54908  -0.05706  -1.46596   0.00184   0.03247  -0.02256  -1.10373
 -6.96742  -0.01557  -1.47236  -0.07479  -6.90208  -0.00506  -0.78310   0.00033   0.01772  -0.02637  -1.58346  -0.00602  -0.89939  -0.00276  -0.58744  -0.02554  -1.44038   0.00066   0.03154  -0.00063  -1.10465  -0.02820  -1.47196  -0.13171  -6.93941  -0.00706  -0.72794   0.00043   0.01881  -0.04462  -1.61336  -0.01424  -0.89661  -0.00516  -0.54934  -0.04395  -1.46817   0.00103   0.03253  -0.00856  -1.10416
 -6.91729  -0.01570  -1.47315  -0.07608  -6.90589  -0.00389  -0.78329   0.00024   0.01774  -0.03016  -1.58497  -0.00443  -0.89961  -0.00141  -0.58751  -0.02881  -1.44182   0.00058   0.03156   0.00263  -1.10452  -0.01795  -1.47286  -0.08382  -6.94361  -0.00321  -0.72810   0.00014   0.01882  -0.03208  -1.61497  -0.00740  -0.89698  -0.00192  -0.54944  -0.03161  -1.46975   0.00053   0.03255  -0.00219  -1.10427
 -6.86717  -0.01555  -1.47392  -0.07451  -6.90962  -0.00366  -0.78348   0.00013   0.01774  -0.03118  -1.58653  -0.00399  -0.89981  -0.00113  -0.58756  -0.02929  -1.44329   0.00042   0.03159   0.00328  -1.10435  -0.01211  -1.47347  -0.05539  -6.94639  -0.00018  -0.72811  -0.00016   0.01881  -0.02764  -1.61636  -0.00293  -0.89713   0.00067  -0.54940  -0.02678  -1.47109   0.00011   0.03256   0.00329  -1.10410
 -6.81704  -0.01602  -1.47473  -0.06728  -6.91300  -0.00494  -0.78372  -0.00043   0.01772  -0.03345  -1.58821  -0.00548  -0.90009  -0.00231  -0.58768  -0.03041  -1.44482  -0.00038   0.03157   0.00054  -1.10432  -0.01180  -1.47406  -0.05270  -6.94903   0.00170  -0.72802  -0.00043   0.01879  -0.03252  -1.61799  -0.00108  -0.89718   0.00239  -0.54928  -0.03083  -1.47264  -0.00018   0.03255   0.00749  -1.10373
 -6.76692  -0.03769  -1.47662  -0.11520  -6.91877  -0.01873  -0.78466  -0.00332   0.01755  -0.07661  -1.59205  -0.02297  -0.90124  -0.01315  -0.58834  -0.06700  -1.44818  -0.00420   0.03136  -0.01801  -1.10523  -0.01403  -1.47476  -0.05974  -6.95203   0.00164  -0.72794  -0.00079   0.01875  -0.03904  -1.61994  -0.00189  -0.89727   0.00240  -0.54916  -0.03614  -1.47445  -0.00061   0.03252   0.00790  -1.10333
 -6.71679  -0.13787  -1.48353  -0.37991  -6.93781  -0.07825  -0.78858  -0.01424   0.01684  -0.26886  -1.60553  -0.09828  -0.90617  -0.05893  -0.59129  -0.23161  -1.45979  -0.01835   0.03044  -0.09236  -1.10986  -0.02561  -1.47605  -0.09126  -6.95660  -0.00406  -0.72814  -0.00237   0.01863  -0.06027  -1.62297  -0.01173  -0.89786  -0.00215  -0.54927  -0.05355  -1.47714  -0.00268   0.03238  -0.00240  -1.10345
 -6.66667  -0.37946  -1.50255  -1.04473  -6.99018  -0.22126  -0.79968  -0.03923   0.01487  -0.72414  -1.64182  -0.27841  -0.92012  -0.16854  -0.59974  -0.61935  -1.49083  -0.05052   0.02790  -0.26896  -1.12334  -0.08823  -1.48047  -0.27998  -6.97063  -0.03178  -0.72974  -0.00951   0.01815  -0.17404  -1.63169  -0.06159  -0.90095  -0.02357  -0.55045  -0.15059  -1.48468  -0.01180   0.03179  -0.05126  -1.10602
 -6.61654  -0.67764  -1.53651  -1.88526  -7.08468  -0.39885  -0.81967  -0.06911   0.01141  -1.27557  -1.70576  -0.50129  -0.94525  -0.30461  -0.61501  -1.08685  -1.54531  -0.08887   0.02345  -0.48834  -1.14782  -0.27746  -1.49438  -0.87247  -7.01437  -0.11248  -0.73537  -0.02970   0.01666  -0.51562  -1.65753  -0.20904  -0.91143  -0.08534  -0.55473  -0.44347  -1.50691  -0.03739   0.02992  -0.19165  -1.11563
 -6.56642  -0.76984  -1.57510  -2.16437  -7.19317  -0.45519  -0.84248  -0.07736   0.00753  -1.43355  -1.77762  -0.57156  -0.97390  -0.34772  -0.63244  -1.22083  -1.60650  -0.09944   0.01846  -0.55849  -1.17581  -0.58405  -1.52365  -1.85583  -7.10739  -0.24269  -0.74754  -0.06107   0.01360  -1.06050  -1.71069  -0.44749  -0.93386  -0.18461  -0.56398  -0.90974  -1.55251  -0.07699   0.02606  -0.41756  -1.13656
 -6.51629  -0.55704  -1.60302  -1.58734  -7.27274  -0.32995  -0.85902  -0.05469   0.00479  -1.02493  -1.82899  -0.41427  -0.99466  -0.25167  -0.64505  -0.87623  -1.65042  -0.07051   0.01493  -0.40376  -1.19605  -0.78413  -1.56296  -2.52422  -7.23392  -0.32857  -0.76401  -0.07994   0.00960  -1.40240  -1.78099  -0.60422  -0.96415  -0.24973  -0.57650  -1.20044  -1.61269  -0.10073   0.02101  -0.56687  -1.16497