  38   38    1    2
  1.2486248e+03   8.1717352e-10   8.1717349e-10   2.1590999e-09   5.0000000e-16
            1.000000e-04
  CAR
 DOS and projected DOS file by LOBSTER. Energy is shifted such that the Fermi level lies at 0 eV. 
     11.74815881      -8.30196651   401       1.72309615       1.00000000
-10.02506   0.00000   0.00000 110.00000 110.00000
 -9.97494   0.00000   0.00000 110.00000 110.00000
 -9.92481   0.00000   0.00000 110.00000 110.00000
 -9.87469   0.00000   0.00000 110.00000 110.00000
 -9.82456   0.00000   0.00000 110.00000 110.00000
 -9.77444   0.00000   0.00000 110.00000 110.00000
 -9.72431   0.00000   0.00000 110.00000 110.00000
 -9.67419   0.00000   0.00000 110.00000 110.00000
 -9.62406   0.00000   0.00000 110.00000 110.00000
 -9.57393   0.00000   0.00000 110.00000 110.00000
 -9.52381   0.00000   0.00000 110.00000 110.00000
 -9.47368   0.00000   0.00000 110.00000 110.00000
 -9.42356   0.00000   0.00000 110.00000 110.00000
 -9.37343   0.00000   0.00000 110.00000 110.00000
 -9.32331   0.00000   0.00000 110.00000 110.00000
 -9.27318   0.00000   0.00000 110.00000 110.00000
 -9.22306   0.00000   0.00000 110.00000 110.00000
 -9.17293   0.00000   0.00000 110.00000 110.00000
 -9.12281   0.00000   0.00000 110.00000 110.00000
 -9.07268   0.00000   0.00000 110.00000 110.00000
 -9.02256   0.00000   0.00000 110.00000 110.00000
 -8.97243   0.00000   0.00000 110.00000 110.00000
 -8.92231   0.00000   0.00000 110.00000 110.00000
 -8.87218   0.00000   0.00000 110.00000 110.00000
 -8.82206   0.00000   0.00000 110.00000 110.00000
 -8.77193   0.00000   0.00000 110.00000 110.00000
 -8.72180   0.00000   0.00000 110.00000 110.00000
 -8.67168   0.00000   0.00000 110.00000 110.00000
 -8.62155   0.00000   0.00000 110.00000 110.00000
 -8.57143   0.00000   0.00000 110.00000 110.00000
 -8.52130   0.00000   0.00000 110.00000 110.00000
 -8.47118   0.00000   0.00000 110.00000 110.00000
 -8.42105   0.00000   0.00000 110.00000 110.00000
 -8.37093   0.00000   0.00000 110.00000 110.00000
 -8.32080   0.00000   0.00000 110.00000 110.00000
 -8.27068   0.00004   0.00000 110.00000 110.00000
 -8.22055   0.00078   0.00009 110.00004 110.00000
 -8.17043   0.00865   0.00149 110.00047 110.00008
 -8.12030   0.06253   0.01509 110.00361 110.00084
 -8.07018   0.30201   0.09990 110.01875 110.00584
 -8.02005   1.00578   0.44415 110.06916 110.02811
 -7.96992   2.37914   1.36400 110.18842 110.09648
 -7.91980   4.04396   2.95481 110.39112 110.24459
 -7.86967   4.87087   4.52531 110.63528 110.47142
 -7.81955   4.03448   4.81541 110.83751 110.71279
 -7.76942   2.22781   3.46639 110.94918 110.88655
 -7.71930   0.80051   1.64574 110.98930 110.96904
 -7.66917   0.18411   0.50537 110.99853 110.99437
 -7.61905   0.02769   0.09902 110.99992 110.99934
 -7.56892   0.01456   0.01279 111.00065 110.99998
 -7.51880   0.10251   0.00918 111.00579 111.00044
 -7.46867   0.54960   0.07732 111.03334 111.00431
 -7.41855   1.87894   0.45151 111.12752 111.02695
 -7.36842   4.11213   1.64838 111.33364 111.10957
 -7.31830   5.82548   3.78204 111.62564 111.29915
 -7.26817   5.48994   5.51520 111.90083 111.57560
 -7.21805   3.73530   5.25467 112.08806 111.83899
 -7.16792   2.28685   3.53225 112.20269 112.01605
 -7.11779   1.62427   2.06679 112.28411 112.11964
 -7.06767   1.25076   1.50330 112.34680 112.19500
 -7.01754   1.03363   1.41739 112.39861 112.26604
 -6.96742   1.18699   1.28040 112.45811 112.33023
 -6.91729   1.51905   1.06116 112.53425 112.38342
 -6.86717   1.57979   1.10627 112.61344 112.43887
 -6.81704   1.35214   1.43395 112.68122 112.51075
 -6.76692   1.24683   1.61927 112.74372 112.59191
 -6.71679   1.91162   1.53496 112.83954 112.66885
 -6.66667   3.83846   1.69715 113.03194 112.75392
 -6.61654   6.11533   2.88780 113.33847 112.89867
 -6.56642   6.63809   5.12758 113.67121 113.15570
 -6.51629   4.92005   6.67265 113.91783 113.49016
 -6.46617   2.78999   5.81407 114.05768 113.78160
 -6.41604   1.66078   3.52964 114.14093 113.95852
 -6.36591   1.37914   1.89119 114.21006 114.05332
 -6.31579   1.40695   1.37557 114.28058 114.12227
 -6.26566   1.61440   1.38105 114.36150 114.19149
 -6.21554   2.13666   1.50716 114.46860 114.26704
 -6.16541   2.90744   1.70687 114.61434 114.35260
 -6.11529   3.42818   2.11353 114.78618 114.45854
 -6.06516   3.22646   2.77083 114.94790 114.59743
 -6.01504   2.51028   3.33264 115.07373 114.76448
 -5.96491   2.04746   3.28398 115.17636 114.92909
 -5.91479   2.35409   2.64077 115.29436 115.06146
 -5.86466   3.24129   2.17858 115.45683 115.17066
 -5.81454   4.15269   2.55865 115.66499 115.29891
 -5.76441   4.69307   3.50312 115.90023 115.47451
 -5.71429   4.82035   4.25356 116.14185 115.68772
 -5.66416   4.72084   4.46411 116.37848 115.91148
 -5.61404   4.60554   4.37910 116.60934 116.13099
 -5.56391   4.78066   4.40698 116.84897 116.35189
 -5.51378   5.80559   4.79066 117.13998 116.59202
 -5.46366   7.90920   5.74789 117.53643 116.88014
 -5.41353  10.35345   7.40941 118.05540 117.25153
 -5.36341  12.14521   9.29656 118.66418 117.71753
 -5.31328  13.07029  10.62544 119.31933 118.25013
 -5.26316  13.64359  11.30980 120.00322 118.81704
 -5.21303  14.42791  12.04960 120.72643 119.42103
 -5.16291  15.48302  13.37890 121.50252 120.09165
 -5.11278  16.43821  15.02698 122.32649 120.84488
 -5.06266  17.01196  16.52677 123.17922 121.67329
 -5.01253  17.25391  17.69401 124.04408 122.56021
 -4.96241  17.63200  18.30161 124.92789 123.47758
 -4.91228  18.87075  18.37721 125.87379 124.39875
 -4.86216  21.11784  18.59806 126.93233 125.33098
 -4.81203  23.67298  19.60325 128.11894 126.31360
 -4.76190  25.63482  21.26329 129.40389 127.37943
 -4.71178  26.53819  22.95472 130.73413 128.53004
 -4.66165  26.51966  24.14029 132.06344 129.74008
 -4.61153  25.99388  24.57320 133.36639 130.97182
 -4.56140  25.61442  24.40689 134.65032 132.19522
 -4.51128  25.86262  24.14433 135.94669 133.40546
 -4.46115  26.39271  24.27033 137.26963 134.62202
 -4.41103  26.56801  24.62061 138.60136 135.85614
 -4.36090  26.20178  24.42977 139.91474 137.08069
 -4.31078  25.59407  23.39533 141.19765 138.25339
 -4.26065  25.15377  22.05864 142.45849 139.35908
 -4.21053  25.18601  21.19717 143.72094 140.42160
 -4.16040  25.80024  21.34014 145.01419 141.49128
 -4.11028  26.46431  22.32231 146.34072 142.61019
 -4.06015  26.32782  23.14814 147.66041 143.77050
 -4.01003  25.42269  23.06876 148.93473 144.92683
 -3.95990  24.62249  22.39820 150.16894 146.04955
 -3.90977  24.45184  21.96096 151.39460 147.15035
 -3.85965  24.81688  22.41068 152.63855 148.27369
 -3.80952  25.54546  23.68887 153.91903 149.46110
 -3.75940  26.59129  24.94411 155.25192 150.71143
 -3.70927  27.73254  25.55064 156.64203 151.99217
 -3.65915  28.42895  25.66528 158.06704 153.27865
 -3.60902  28.51636  25.59062 159.49643 154.56138
 -3.55890  28.52315  25.40630 160.92616 155.83488
 -3.50877  28.77745  25.18654 162.36864 157.09736
 -3.45865  29.11723  25.21664 163.82815 158.36136
 -3.40852  29.56027  25.80801 165.30987 159.65499
 -3.35840  30.29881  26.82660 166.82860 160.99968
 -3.30827  31.13977  27.80725 168.38949 162.39353
 -3.25815  31.59929  28.47944 169.97342 163.82107
 -3.20802  31.75129  29.08379 171.56496 165.27891
 -3.15789  32.30087  30.05543 173.18405 166.78544
 -3.10777  33.52299  31.28876 174.86440 168.35380
 -3.05764  35.09502  32.28753 176.62355 169.97222
 -3.00752  36.84377  32.92430 178.47036 171.62257
 -2.95739  38.78594  33.55773 180.41451 173.30466
 -2.90727  40.59671  34.58977 182.44944 175.03848
 -2.85714  41.80811  35.95907 184.54508 176.84094
 -2.80702  42.57197  37.00958 186.67902 178.69606
 -2.75689  43.78284  37.16390 188.87364 180.55891
 -2.70677  46.17052  36.68301 191.18796 182.39766
 -2.65664  48.94428  36.51151 193.64130 184.22781
 -2.60652  50.26539  37.23986 196.16087 186.09447
 -2.55639  49.63663  38.26838 198.64892 188.01268
 -2.50627  48.39426  38.48622 201.07470 189.94182
 -2.45614  47.68215  37.76949 203.46478 191.83502
 -2.40602  47.30892  37.27443 205.83616 193.70342
 -2.35589  46.63288  38.15266 208.17364 195.61583
 -2.30576  45.69466  40.14735 210.46410 197.62823
 -2.25564  45.01145  41.57287 212.72032 199.71208
 -2.20551  44.62289  41.04859 214.95705 201.76966
 -2.15539  44.18299  38.71958 217.17174 203.71049
 -2.10526  43.52509  35.66914 219.35345 205.49841
 -2.05514  42.47198  33.13623 221.48237 207.15938
 -2.00501  40.88379  31.67440 223.53168 208.74707
 -1.95489  39.22223  30.66569 225.49771 210.28419
 -1.90476  38.09185  29.34243 227.40707 211.75499
 -1.85464  37.41571  27.58487 229.28255 213.13769
 -1.80451  36.86963  25.66761 231.13065 214.42429
 -1.75439  36.26346  24.22499 232.94837 215.63857
 -1.70426  35.21957  23.74833 234.71376 216.82897
 -1.65414  33.41368  23.72830 236.38863 218.01836
 -1.60401  31.27477  23.24657 237.95629 219.18360
 -1.55388  29.95387  22.17097 239.45774 220.29492
 -1.50376  29.93913  21.35444 240.95844 221.36532
 -1.45363  30.34308  21.55200 242.47940 222.44562
 -1.40351  30.17241  22.41516 243.99180 223.56919
 -1.35338  29.39086  23.09126 245.46503 224.72665
 -1.30326  28.56388  23.27357 246.89680 225.89324
 -1.25313  28.07575  23.01624 248.30411 227.04694
 -1.20301  27.78575  22.28394 249.69688 228.16393
 -1.15288  27.12451  21.24472 251.05650 229.22882
 -1.10276  25.64441  20.26707 252.34194 230.24472
 -1.05263  23.65025  19.64581 253.52741 231.22947
 -1.00251  21.99117  19.53876 254.62973 232.20886
 -0.95238  21.09088  19.86453 255.68691 233.20457
 -0.90226  20.52534  20.29053 256.71575 234.22164
 -0.85213  19.80717  20.46762 257.70859 235.24759
 -0.80201  19.22023  20.11659 258.67201 236.25594
 -0.75188  19.23468  19.30964 259.63616 237.22384
 -0.70175  19.69658  18.67218 260.62345 238.15979
 -0.65163  20.08505  18.67176 261.63022 239.09572
 -0.60150  19.93472  19.04428 262.62946 240.05032
 -0.55138  19.16198  19.16137 263.58996 241.01079
 -0.50125  18.32342  18.92688 264.50843 241.95950
 -0.45113  17.95440  18.89616 265.40840 242.90668
 -0.40100  17.63759  19.32598 266.29249 243.87540
 -0.35088  16.85016  19.75357 267.13711 244.86555
 -0.30075  16.08003  19.66845 267.94312 245.85144
 -0.25063  16.00381  19.20124 268.74532 246.81391
 -0.20050  16.44013  18.72999 269.56938 247.75276
 -0.15038  16.73793  18.18738 270.40838 248.66440
 -0.10025  16.51960  17.45846 271.23643 249.53951
 -0.05013  15.82007  16.87663 272.02941 250.38546
  0.00000  14.99806  16.85452 272.78120 251.23030
  0.05013  14.40631  17.46095 273.50332 252.10553
  0.10025  13.96212  18.28953 274.20317 253.02230
  0.15038  13.36358  18.77483 274.87303 253.96340
  0.20050  12.69577  18.80065 275.50941 254.90579
  0.25063  12.34819  18.74605 276.12836 255.84544
  0.30075  12.53863  18.83744 276.75687 256.78967
  0.35088  13.19664  18.90197 277.41835 257.73714
  0.40100  14.15251  18.91409 278.12775 258.68521
  0.45113  15.28564  19.20322 278.89395 259.64778
  0.50125  16.24059  19.95767 279.70801 260.64816
  0.55138  16.49824  20.75373 280.53499 261.68845
  0.60150  16.20952  20.96397 281.34750 262.73928
  0.65163  16.01392  20.83058 282.15020 263.78342
  0.70175  16.01453  21.24892 282.95294 264.84852
  0.75188  15.93258  22.13769 283.75156 265.95818
  0.80201  15.86257  22.29262 284.54668 267.07561
  0.85213  16.02234  21.34340 285.34980 268.14545
  0.90226  15.99477  20.27925 286.15155 269.16196
  0.95238  15.11382  19.92992 286.90913 270.16095
  1.00251  13.63086  20.34106 287.59238 271.18055
  1.05263  12.65873  20.85885 288.22691 272.22611
  1.10276  12.91992  20.55711 288.87452 273.25654
  1.15288  14.00274  19.51070 289.57641 274.23452
  1.20301  14.95771  18.74634 290.32617 275.17419
  1.25313  15.46895  18.89360 291.10156 276.12123
  1.30326  15.81079  19.76694 291.89408 277.11206
  1.35338  15.93132  20.65387 292.69264 278.14734
  1.40351  15.66463  20.95359 293.47784 279.19764
  1.45363  15.26656  20.90852 294.24308 280.24569
  1.50376  14.86429  21.12453 294.98815 281.30456
  1.55388  14.27929  21.63941 295.70391 282.38925
  1.60401  13.58205  22.18599 296.38471 283.50133
  1.65414  13.04007  22.63610 297.03835 284.63597
  1.70426  12.76396  22.80255 297.67815 285.77895
  1.75439  12.70635  22.70308 298.31506 286.91695
  1.80451  12.69891  22.69434 298.95159 288.05451
  1.85464  12.57964  22.81507 299.58215 289.19812
  1.90476  12.46096  22.83124 300.20676 290.34255
  1.95489  12.57738  22.81878 300.83721 291.48635
  2.00501  12.88266  23.03285 301.48295 292.64088
  2.05514  12.92181  23.38764 302.13066 293.81319
  2.10526  12.28504  23.39109 302.74646 294.98567
  2.15539  11.26321  22.81457 303.31103 296.12926
  2.20551  10.73127  21.82526 303.84894 297.22326
  2.25564  11.31288  20.44316 304.41600 298.24798
  2.30576  12.67279  18.79752 305.05122 299.19021
  2.35589  13.65641  17.46296 305.73576 300.06555
  2.40602  13.45742  16.83666 306.41031 300.90949
  2.45614  12.45471  16.70953 307.03461 301.74706
  2.50627  11.43960  16.71213 307.60802 302.58476
  2.55639  10.70391  16.68885 308.14456 303.42129
  2.60652  10.39683  16.57447 308.66570 304.25210
  2.65664  10.72228  16.26626 309.20316 305.06745
  2.70677  11.41779  15.59758 309.77548 305.84928
  2.75689  11.81049  14.47523 310.36749 306.57486
  2.80702  11.54105  13.30234 310.94599 307.24164
  2.85714  10.89017  12.77828 311.49186 307.88216
  2.90727  10.38759  13.06578 312.01254 308.53708
  2.95739  10.25846  13.58726 312.52675 309.21815
  3.00752  10.27305  13.68197 313.04169 309.90396
  3.05764  10.15562  13.26867 313.55074 310.56906
  3.10777   9.88932  12.65610 314.04645 311.20345
  3.15789   9.60421  11.86882 314.52786 311.79838
  3.20802   9.34289  10.78464 314.99618 312.33896
  3.25815   9.05733   9.83470 315.45018 312.83193
  3.30827   8.71091   9.62067 315.88682 313.31417
  3.35840   8.24955   9.96767 316.30033 313.81380
  3.40852   7.78720  10.14382 316.69066 314.32226
  3.45865   7.58057   9.76231 317.07064 314.81160
  3.50877   7.58403   9.07908 317.45079 315.26669
  3.55890   7.46808   8.49032 317.82513 315.69227
  3.60902   7.15390   8.07147 318.18372 316.09686
  3.65915   6.84730   7.69423 318.52695 316.48253
  3.70927   6.55029   7.25845 318.85528 316.84636
  3.75940   6.08796   6.82370 319.16044 317.18840
  3.80952   5.74683   6.64122 319.44851 317.52130
  3.85965   6.16323   6.79424 319.75744 317.86186
  3.90977   7.27059   6.88798 320.12188 318.20712
  3.95990   8.12395   6.75868 320.52910 318.54590
  4.01003   8.15047   6.91721 320.93764 318.89263
  4.06015   7.87385   7.56344 321.33232 319.27175
  4.11028   7.89271   8.33656 321.72794 319.68962
  4.16040   7.95087   8.95581 322.12648 320.13854
  4.21053   7.80404   9.29696 322.51766 320.60455
  4.26065   7.86724   9.30329 322.91201 321.07088
  4.31078   8.33792   9.04781 323.32995 321.52440
  4.36090   8.90943   8.86010 323.77654 321.96852
  4.41103   9.27025   8.93269 324.24121 322.41627
  4.46115   9.24130   9.04131 324.70444 322.86947
  4.51128   8.82988   9.02470 325.14704 323.32184
  4.56140   8.22045   8.86813 325.55909 323.76635
  4.61153   7.76722   8.51342 325.94842 324.19309
  4.66165   7.81708   8.04571 326.34026 324.59639
  4.71178   8.15733   7.93808 326.74915 324.99428
  4.76190   8.20750   8.47369 327.16055 325.41903
  4.81203   7.84485   9.08558 327.55378 325.87445
  4.86216   7.32630   9.11987 327.92101 326.33158
  4.91228   6.94934   8.67874 328.26935 326.76661
  4.96241   7.07853   8.24037 328.62416 327.17966
  5.01253   7.66934   8.02536 329.00859 327.58193
  5.06266   8.13819   7.95391 329.41652 327.98063
  5.11278   8.07015   7.98728 329.82104 328.38099
  5.16291   7.43494   8.18736 330.19372 328.79139
  5.21303   6.37999   8.34454 330.51351 329.20966
  5.26316   5.15175   8.10839 330.77175 329.61609
  5.31328   4.00176   7.50921 330.97234 329.99250
  5.36341   3.14148   6.74197 331.12981 330.33044
  5.41353   2.69582   5.69957 331.26493 330.61613
  5.46366   2.60305   4.37999 331.39541 330.83568
  5.51378   2.60870   3.31601 331.52618 331.00190
  5.56391   2.47251   2.86700 331.65011 331.14560
  5.61404   2.17252   2.76738 331.75901 331.28432
  5.66416   1.81292   2.65487 331.84988 331.41740
  5.71429   1.39842   2.38476 331.91998 331.53693
  5.76441   0.90321   1.96396 331.96525 331.63538
  5.81454   0.45348   1.55141 331.98798 331.71314
  5.86466   0.17492   1.30002 331.99675 331.77831
  5.91479   0.05173   1.19208 331.99934 331.83806
  5.96491   0.01124   1.08920 331.99991 331.89266
  6.01504   0.00168   0.87262 331.99999 331.93640
  6.06516   0.00016   0.59458 332.00000 331.96620
  6.11529   0.00001   0.36522 332.00000 331.98451
  6.16541   0.00000   0.19786 332.00000 331.99443
  6.21554   0.00000   0.08259 332.00000 331.99857
  6.26566   0.00000   0.02367 332.00000 331.99975
  6.31579   0.00000   0.00440 332.00000 331.99997
  6.36591   0.00000   0.00052 332.00000 332.00000
  6.41604   0.00000   0.00004 332.00000 332.00000
  6.46617   0.00000   0.00000 332.00000 332.00000
  6.51629   0.00000   0.00000 332.00000 332.00000
  6.56642   0.00000   0.00000 332.00000 332.00000
  6.61654   0.00000   0.00000 332.00000 332.00000
  6.66667   0.00000   0.00000 332.00000 332.00000
  6.71679   0.00000  -0.00000 332.00000 332.00000
  6.76692   0.00000   0.00000 332.00000 332.00000
  6.81704   0.00000   0.00000 332.00000 332.00000
  6.86717   0.00000   0.00000 332.00000 332.00000
  6.91729   0.00000   0.00000 332.00000 332.00000
  6.96742   0.00000   0.00000 332.00000 332.00000
  7.01754   0.00000   0.00000 332.00000 332.00000
  7.06767   0.00000   0.00000 332.00000 332.00000
  7.11779   0.00000   0.00000 332.00000 332.00000
  7.16792   0.00000   0.00000 332.00000 332.00000
  7.21805   0.00000   0.00000 332.00000 332.00000
  7.26817   0.00000   0.00000 332.00000 332.00000
  7.31830   0.00000   0.00000 332.00000 332.00000
  7.36842   0.00000   0.00000 332.00000 332.00000
  7.41855   0.00000   0.00000 332.00000 332.00000
  7.46867   0.00000   0.00000 332.00000 332.00000
  7.51880   0.00000   0.00000 332.00000 332.00000
  7.56892   0.00000   0.00000 332.00000 332.00000
  7.61905   0.00000   0.00000 332.00000 332.00000
  7.66917   0.00000   0.00000 332.00000 332.00000
  7.71930   0.00000   0.00000 332.00000 332.00000
  7.76942   0.00000   0.00000 332.00000 332.00000
  7.81955   0.00000   0.00000 332.00000 332.00000
  7.86967   0.00000   0.00000 332.00000 332.00000
  7.91980   0.00000   0.00000 332.00000 332.00000
  7.96992   0.00000   0.00000 332.00000 332.00000
  8.02005   0.00000   0.00000 332.00000 332.00000
  8.07018   0.00000   0.00000 332.00000 332.00000
  8.12030   0.00000   0.00000 332.00000 332.00000
  8.17043   0.00000   0.00000 332.00000 332.00000
  8.22055   0.00000   0.00000 332.00000 332.00000
  8.27068   0.00000   0.00000 332.00000 332.00000
  8.32080   0.00000   0.00000 332.00000 332.00000
  8.37093   0.00000   0.00000 332.00000 332.00000
  8.42105   0.00000   0.00000 332.00000 332.00000
  8.47118   0.00000   0.00000 332.00000 332.00000
  8.52130   0.00000   0.00000 332.00000 332.00000
  8.57143   0.00000   0.00000 332.00000 332.00000
  8.62155   0.00000   0.00000 332.00000 332.00000
  8.67168   0.00000   0.00000 332.00000 332.00000
  8.72180   0.00000   0.00000 332.00000 332.00000
  8.77193   0.00000   0.00000 332.00000 332.00000
  8.82206   0.00000   0.00000 332.00000 332.00000
  8.87218   0.00000   0.00000 332.00000 332.00000
  8.92231   0.00000   0.00000 332.00000 332.00000
  8.97243   0.00000   0.00000 332.00000 332.00000
  9.02256   0.00000   0.00000 332.00000 332.00000
  9.07268   0.00000   0.00000 332.00000 332.00000
  9.12281   0.00000   0.00000 332.00000 332.00000
  9.17293   0.00000   0.00000 332.00000 332.00000
  9.22306   0.00000   0.00000 332.00000 332.00000
  9.27318   0.00000   0.00000 332.00000 332.00000
  9.32331   0.00000   0.00000 332.00000 332.00000
  9.37343   0.00000   0.00000 332.00000 332.00000
  9.42356   0.00000   0.00000 332.00000 332.00000
  9.47368   0.00000   0.00000 332.00000 332.00000
  9.52381   0.00000   0.00000 332.00000 332.00000
  9.57393   0.00000   0.00000 332.00000 332.00000
  9.62406   0.00000   0.00000 332.00000 332.00000
  9.67419   0.00000   0.00000 332.00000 332.00000
  9.72431   0.00000   0.00000 332.00000 332.00000
  9.77444   0.00000   0.00000 332.00000 332.00000
  9.82456   0.00000   0.00000 332.00000 332.00000
  9.87469   0.00000   0.00000 332.00000 332.00000
  9.92481   0.00000   0.00000 332.00000 332.00000
  9.97494   0.00000   0.00000 332.00000 332.00000
 10.02506   0.00000   0.00000 332.00000 332.00000
     10.02506266     -10.02506266   401       1.72309615       1.00000000; Z= 25; 4s 3p_y 3p_z 3p_x 3d_xy 3d_yz 3d_z^2 3d_xz 3d_x^2-y^2 
-10.02506   0.00000   0.00000   0.00000   0.00000   0.00000   0.00000   0.00000   0.00000   0.00000   0.00000   0.00000   0.00000   0.00000   0.00000   0.00000   0.00000   0.00000   0.00000
 -9.97494   0.00000   0.00000   0.00000   0.00000   0.00000   0.00000   0.00000   0.00000   0.00000   0.00000   0.00000   0.00000   0.00000   0.00000   0.00000   0.00000   0.00000   0.00000
 -9.92481   0.00000   0.00000   0.00000   0.00000   0.00000   0.00000   0.00000   0.00000   0.00000   0.00000   0.00000   0.00000   0.00000   0.00000   0.00000   0.00000   0.00000   0.00000
 -9.87469   0.00000   0.00000   0.00000   0.00000   0.00000   0.00000   0.00000   0.00000   0.00000   0.00000   0.00000   0.00000   0.00000   0.00000   0.00000   0.00000   0.00000   0.00000
 -9.82456   0.00000   0.00000   0.00000   0.00000   0.00000   0.00000   0.00000   0.00000   0.00000   0.00000   0.00000   0.00000   0.00000   0.00000   0.00000   0.00000   0.00000   0.00000
 -9.77444   0.00000   0.00000   0.00000   0.00000   0.00000   0.00000   0.00000   0.00000   0.00000   0.00000   0.00000   0.00000   0.00000   0.00000   0.00000   0.00000   0.00000   0.00000
 -9.72431   0.00000   0.00000   0.00000   0.00000   0.00000   0.00000   0.00000   0.00000   0.00000   0.00000   0.00000   0.00000   0.00000   0.00000   0.00000   0.00000   0.00000   0.00000
 -9.67419   0.00000   0.00000   0.00000   0.00000   0.00000   0.00000   0.00000   0.00000   0.00000   0.00000   0.00000   0.00000   0.00000   0.00000   0.00000   0.00000   0.00000   0.00000
 -9.62406   0.00000   0.00000   0.00000   0.00000   0.00000   0.00000   0.00000   0.00000   0.00000   0.00000   0.00000   0.00000   0.00000   0.00000   0.00000   0.00000   0.00000   0.00000
 -9.57393   0.00000   0.00000   0.00000   0.00000   0.00000   0.00000   0.00000   0.00000   0.00000   0.00000   0.00000   0.00000   0.00000   0.00000   0.00000   0.00000   0.00000   0.00000
 -9.52381   0.00000   0.00000   0.00000   0.00000   0.00000   0.00000   0.00000   0.00000   0.00000   0.00000   0.00000   0.00000   0.00000   0.00000   0.00000   0.00000   0.00000   0.00000
 -9.47368   0.00000   0.00000   0.00000   0.00000   0.00000   0.00000   0.00000   0.00000   0.00000   0.00000   0.00000   0.00000   0.00000   0.00000   0.00000   0.00000   0.00000   0.00000
 -9.42356   0.00000   0.00000   0.00000   0.00000   0.00000   0.00000   0.00000   0.00000   0.00000   0.00000   0.00000   0.00000   0.00000   0.00000   0.00000   0.00000   0.00000   0.00000
 -9.37343   0.00000   0.00000   0.00000   0.00000   0.00000   0.00000   0.00000   0.00000   0.00000   0.00000   0.00000   0.00000   0.00000   0.00000   0.00000   0.00000   0.00000   0.00000
 -9.32331   0.00000   0.00000   0.00000   0.00000   0.00000   0.00000   0.00000   0.00000   0.00000   0.00000   0.00000   0.00000   0.00000   0.00000   0.00000   0.00000   0.00000   0.00000
 -9.27318   0.00000   0.00000   0.00000   0.00000   0.00000   0.00000   0.00000   0.00000   0.00000   0.00000   0.00000   0.00000   0.00000   0.00000   0.00000   0.00000   0.00000   0.00000
 -9.22306   0.00000   0.00000   0.00000   0.00000   0.00000   0.00000   0.00000   0.00000   0.00000   0.00000   0.00000   0.00000   0.00000   0.00000   0.00000   0.00000   0.00000   0.00000
 -9.17293   0.00000   0.00000   0.00000   0.00000   0.00000   0.00000   0.00000   0.00000   0.00000   0.00000   0.00000   0.00000   0.00000   0.00000   0.00000   0.00000   0.00000   0.00000
 -9.12281   0.00000   0.00000   0.00000   0.00000   0.00000   0.00000   0.00000   0.00000   0.00000   0.00000   0.00000   0.00000   0.00000   0.00000   0.00000   0.00000   0.00000   0.00000
 -9.07268   0.00000   0.00000   0.00000   0.00000   0.00000   0.00000   0.00000   0.00000   0.00000   0.00000   0.00000   0.00000   0.00000   0.00000   0.00000   0.00000   0.00000   0.00000
 -9.02256   0.00000   0.00000   0.00000   0.00000   0.00000   0.00000   0.00000   0.00000   0.00000   0.00000   0.00000   0.00000   0.00000   0.00000   0.00000   0.00000   0.00000   0.00000
 -8.97243   0.00000   0.00000   0.00000   0.00000   0.00000   0.00000   0.00000   0.00000   0.00000   0.00000   0.00000   0.00000   0.00000   0.00000   0.00000   0.00000   0.00000   0.00000
 -8.92231   0.00000   0.00000   0.00000   0.00000   0.00000   0.00000   0.00000   0.00000   0.00000   0.00000   0.00000   0.00000   0.00000   0.00000   0.00000   0.00000   0.00000   0.00000
 -8.87218   0.00000   0.00000   0.00000   0.00000   0.00000   0.00000   0.00000   0.00000   0.00000   0.00000   0.00000   0.00000   0.00000   0.00000   0.00000   0.00000   0.00000   0.00000
 -8.82206   0.00000   0.00000   0.00000   0.00000   0.00000   0.00000   0.00000   0.00000   0.00000   0.00000   0.00000   0.00000   0.00000   0.00000   0.00000   0.00000   0.00000   0.00000
 -8.77193   0.00000   0.00000   0.00000   0.00000   0.00000   0.00000   0.00000   0.00000   0.00000   0.00000   0.00000   0.00000   0.00000   0.00000   0.00000   0.00000   0.00000   0.00000
 -8.72180   0.00000   0.00000   0.00000   0.00000   0.00000   0.00000   0.00000   0.00000   0.00000   0.00000   0.00000   0.00000   0.00000   0.00000   0.00000   0.00000   0.00000   0.00000
 -8.67168   0.00000   0.00000   0.00000   0.00000   0.00000   0.00000   0.00000   0.00000   0.00000   0.00000   0.00000   0.00000   0.00000   0.00000   0.00000   0.00000   0.00000   0.00000
 -8.62155   0.00000   0.00000   0.00000   0.00000   0.00000   0.00000   0.00000   0.00000   0.00000   0.00000   0.00000   0.00000   0.00000   0.00000   0.00000   0.00000   0.00000   0.00000
 -8.57143   0.00000   0.00000   0.00000   0.00000  -0.00000   0.00000   0.00000   0.00000  -0.00000   0.00000   0.00000   0.00000   0.00000   0.00000  -0.00000   0.00000   0.00000   0.00000
 -8.52130   0.00000   0.00000  -0.00000   0.00000  -0.00000   0.00000   0.00000   0.00000   0.00000  -0.00000  -0.00000  -0.00000   0.00000  -0.00000   0.00000   0.00000   0.00000  -0.00000
 -8.47118   0.00000   0.00000  -0.00000  -0.00000  -0.00000  -0.00000  -0.00000   0.00000   0.00000   0.00000   0.00000   0.00000   0.00000  -0.00000   0.00000   0.00000   0.00000   0.00000
 -8.42105   0.00000   0.00000  -0.00000  -0.00000  -0.00000  -0.00000  -0.00000  -0.00000   0.00000   0.00000   0.00000   0.00000   0.00000  -0.00000   0.00000   0.00000   0.00000   0.00000
 -8.37093   0.00000   0.00000  -0.00000  -0.00000  -0.00000  -0.00000  -0.00000  -0.00000   0.00000   0.00000   0.00000   0.00000   0.00000  -0.00000   0.00000   0.00000   0.00000   0.00000
 -8.32080   0.00000   0.00000  -0.00000  -0.00000  -0.00000  -0.00000  -0.00000   0.00000   0.00000   0.00000   0.00000   0.00000   0.00000  -0.00000   0.00000   0.00000   0.00000   0.00000
 -8.27068   0.00000   0.00000  -0.00000  -0.00000  -0.00000  -0.00000  -0.00000  -0.00000   0.00000   0.00000   0.00000   0.00000   0.00000  -0.00000   0.00000   0.00000   0.00000   0.00000
 -8.22055   0.00000   0.00000  -0.00000  -0.00000  -0.00000  -0.00000  -0.00000  -0.00000   0.00000   0.00000   0.00000   0.00000   0.00000  -0.00000   0.00000   0.00000   0.00000   0.00000
 -8.17043   0.00001   0.00000  -0.00000  -0.00000  -0.00000  -0.00000  -0.00000  -0.00000   0.00000   0.00000   0.00000   0.00000   0.00000  -0.00000   0.00000   0.00000   0.00000   0.00000
 -8.12030   0.00006   0.00001  -0.00000  -0.00000  -0.00000  -0.00000  -0.00000  -0.00000   0.00000   0.00000   0.00000   0.00000   0.00000   0.00000   0.00000   0.00000   0.00000   0.00000
 -8.07018   0.00024   0.00005  -0.00000  -0.00000  -0.00000  -0.00000  -0.00000  -0.00000   0.00000   0.00000   0.00000   0.00000   0.00000   0.00000   0.00000   0.00000   0.00000   0.00000
 -8.02005   0.00066   0.00020  -0.00000  -0.00000  -0.00000  -0.00000  -0.00000  -0.00000   0.00000   0.00000   0.00000   0.00000   0.00000   0.00000   0.00000   0.00000   0.00000   0.00000
 -7.96992   0.00118   0.00048  -0.00000  -0.00000  -0.00000  -0.00000  -0.00000  -0.00000   0.00000   0.00000   0.00000   0.00000   0.00000   0.00000   0.00000   0.00000   0.00000   0.00000
 -7.91980   0.00142   0.00078  -0.00000  -0.00000  -0.00000  -0.00000  -0.00000  -0.00000   0.00000   0.00000   0.00001   0.00000   0.00001   0.00000   0.00000   0.00000   0.00000   0.00000
 -7.86967   0.00115   0.00083  -0.00000  -0.00000  -0.00000  -0.00000  -0.00000  -0.00000   0.00000   0.00000   0.00001   0.00000   0.00001   0.00000   0.00000   0.00000   0.00000   0.00000
 -7.81955   0.00065   0.00061  -0.00000  -0.00000  -0.00000  -0.00000  -0.00000  -0.00000   0.00000   0.00000   0.00001   0.00000   0.00000   0.00000   0.00000   0.00000   0.00000   0.00000
 -7.76942   0.00025   0.00031  -0.00000  -0.00000  -0.00000  -0.00000  -0.00000  -0.00000   0.00000   0.00000   0.00000   0.00000   0.00000   0.00000   0.00000   0.00000   0.00000   0.00000
 -7.71930   0.00007   0.00011  -0.00000  -0.00000  -0.00000  -0.00000  -0.00000  -0.00000   0.00000   0.00000   0.00000   0.00000   0.00000   0.00000   0.00000   0.00000   0.00000   0.00000
 -7.66917   0.00001   0.00003  -0.00000  -0.00000  -0.00000  -0.00000  -0.00000  -0.00000   0.00000   0.00000   0.00000   0.00000   0.00000   0.00000   0.00000   0.00000   0.00000   0.00000
 -7.61905   0.00001   0.00000  -0.00000  -0.00000  -0.00000  -0.00000  -0.00000  -0.00000   0.00000   0.00000   0.00000   0.00000   0.00000   0.00000   0.00000   0.00000   0.00000   0.00000
 -7.56892   0.00005   0.00000  -0.00000  -0.00000  -0.00000  -0.00000  -0.00000  -0.00000   0.00000   0.00000   0.00000   0.00000   0.00000   0.00000   0.00000   0.00000   0.00000   0.00000