  COHP#       atomMU       atomNU     distance     translation      ICOHP (at) eF   for spin  1
      1          N38          N37      1.32339       0   0   0           -6.13527 
      2          Mn7          N37      1.99257       0   0   0           -0.76986 
      3         Mo16          N37      3.22587       0   0   0           -0.02737 
      4         Mo25          N37      2.04287       0   0   0           -1.86395 
      5         Mo26          N37      2.20147       0   0   0           -0.96313 
      6          Mn7          N38      2.09209       0   0   0           -0.50712 
      7         Mo16          N38      2.08777       0   0   0           -1.64063 
      8         Mo25          N38      3.24169       0   0   0           -0.03670 
      9         Mo26          N38      2.13439       0   0   0           -1.17711 
  COHP#       atomMU       atomNU     distance     translation      ICOHP (at) eF   for spin  2
      1          N38          N37      1.32339       0   0   0           -6.06869 
      2          Mn7          N37      1.99257       0   0   0           -0.95512 
      3         Mo16          N37      3.22587       0   0   0           -0.03014 
      4         Mo25          N37      2.04287       0   0   0           -1.84305 
      5         Mo26          N37      2.20147       0   0   0           -0.94939 
      6          Mn7          N38      2.09209       0   0   0           -0.69912 
      7         Mo16          N38      2.08777       0   0   0           -1.63733 
      8         Mo25          N38      3.24169       0   0   0           -0.04007 
      9         Mo26          N38      2.13439       0   0   0           -1.22362 
